/*--------------------------------*- C++ -*----------------------------------*\
  =========                 |
  \\      /  F ield         | OpenFOAM: The Open Source CFD Toolbox
   \\    /   O peration     | Website:  https://openfoam.org
    \\  /    A nd           | Version:  12
     \\/     M anipulation  |
\*---------------------------------------------------------------------------*/
FoamFile
{
    format      ascii;
    class       volScalarField;
    location    "10";
    object      p;
}
// * * * * * * * * * * * * * * * * * * * * * * * * * * * * * * * * * * * * * //

dimensions      [1 -1 -2 0 0 0 0];

internalField   nonuniform List<scalar> 
40000
(
100143.480868
100143.48111
100143.481297
100143.481408
100143.48147
100143.481507
100143.481531
100143.481549
100143.481563
100143.481574
100143.481584
100143.481592
100143.481599
100143.481606
100143.481612
100143.481617
100143.481622
100143.481628
100143.481633
100143.481638
100143.481642
100143.481647
100143.481652
100143.481657
100143.481662
100143.481667
100143.481672
100143.481677
100143.481683
100143.481688
100143.481694
100143.4817
100143.481706
100143.481712
100143.481719
100143.481725
100143.481732
100143.481739
100143.481747
100143.481754
100143.481762
100143.481771
100143.481779
100143.481788
100143.481797
100143.481807
100143.481817
100143.481827
100143.481838
100143.481849
100143.48186
100143.481872
100143.481885
100143.481898
100143.481911
100143.481926
100143.48194
100143.481955
100143.481971
100143.481988
100143.482005
100143.482023
100143.482042
100143.482062
100143.482082
100143.482103
100143.482126
100143.482149
100143.482174
100143.482199
100143.482226
100143.482254
100143.482283
100143.482314
100143.482346
100143.48238
100143.482415
100143.482452
100143.482491
100143.482532
100143.482575
100143.482621
100143.482669
100143.482719
100143.482772
100143.482829
100143.482888
100143.48295
100143.483016
100143.483086
100143.48316
100143.483239
100143.483322
100143.48341
100143.483504
100143.483604
100143.483711
100143.483824
100143.483945
100143.484073
100143.484209
100143.484352
100143.4845
100143.484652
100143.484804
100143.484952
100143.485093
100143.485222
100143.485336
100143.485426
100143.485485
100143.485512
100143.485505
100143.485467
100143.485399
100143.485308
100143.485198
100143.485077
100143.484953
100143.484833
100143.484727
100143.48464
100143.48458
100143.484549
100143.484542
100143.484563
100143.484607
100143.484667
100143.484736
100143.484806
100143.484873
100143.484933
100143.484986
100143.485035
100143.485081
100143.485127
100143.485174
100143.485221
100143.485267
100143.48531
100143.48535
100143.485385
100143.485415
100143.485439
100143.485456
100143.485467
100143.485471
100143.485468
100143.485458
100143.485441
100143.485418
100143.485389
100143.485354
100143.485313
100143.485268
100143.48522
100143.485168
100143.485113
100143.485057
100143.484999
100143.48494
100143.484881
100143.48482
100143.484759
100143.484697
100143.484635
100143.484571
100143.484507
100143.484441
100143.484376
100143.484311
100143.484248
100143.484187
100143.48413
100143.48408
100143.484039
100143.48401
100143.483998
100143.484007
100143.484045
100143.48412
100143.484242
100143.484428
100143.484694
100143.485067
100143.48558
100143.486279
100143.487216
100143.488428
100143.489964
100143.491867
100143.494147
100143.496752
100143.499524
100143.502152
100143.504163
100143.505096
100143.504878
100143.504055
100143.503744
100143.42302
100143.422985
100143.423024
100143.423075
100143.423115
100143.423143
100143.423164
100143.423181
100143.423194
100143.423204
100143.423214
100143.423222
100143.423229
100143.423235
100143.423241
100143.423247
100143.423252
100143.423258
100143.423263
100143.423268
100143.423272
100143.423277
100143.423282
100143.423287
100143.423292
100143.423297
100143.423302
100143.423308
100143.423313
100143.423319
100143.423324
100143.42333
100143.423336
100143.423342
100143.423349
100143.423356
100143.423363
100143.42337
100143.423377
100143.423385
100143.423393
100143.423401
100143.423409
100143.423418
100143.423427
100143.423437
100143.423447
100143.423457
100143.423468
100143.423479
100143.423491
100143.423503
100143.423515
100143.423528
100143.423542
100143.423556
100143.42357
100143.423586
100143.423602
100143.423618
100143.423635
100143.423653
100143.423672
100143.423692
100143.423712
100143.423734
100143.423756
100143.423779
100143.423804
100143.423829
100143.423856
100143.423884
100143.423913
100143.423944
100143.423976
100143.42401
100143.424045
100143.424082
100143.424121
100143.424162
100143.424205
100143.424251
100143.424299
100143.424349
100143.424402
100143.424458
100143.424518
100143.42458
100143.424646
100143.424716
100143.42479
100143.424869
100143.424952
100143.42504
100143.425134
100143.425234
100143.425341
100143.425455
100143.425576
100143.425705
100143.42584
100143.425981
100143.426127
100143.426273
100143.426417
100143.426554
100143.426681
100143.426793
100143.426885
100143.426949
100143.426983
100143.426984
100143.426953
100143.42689
100143.4268
100143.426687
100143.426558
100143.426421
100143.426282
100143.426149
100143.426031
100143.425934
100143.425864
100143.425825
100143.42582
100143.425842
100143.425889
100143.425951
100143.426021
100143.426091
100143.426153
100143.426203
100143.426243
100143.426273
100143.4263
100143.426327
100143.426356
100143.426387
100143.426419
100143.426451
100143.42648
100143.426506
100143.426528
100143.426545
100143.426558
100143.426565
100143.426566
100143.426562
100143.426551
100143.426533
100143.42651
100143.42648
100143.426445
100143.426405
100143.426359
100143.42631
100143.426258
100143.426203
100143.426145
100143.426086
100143.426026
100143.425965
100143.425902
100143.425839
100143.425774
100143.425708
100143.425642
100143.425574
100143.425505
100143.425436
100143.425367
100143.425299
100143.425234
100143.425174
100143.425119
100143.425073
100143.42504
100143.425022
100143.425024
100143.425053
100143.425117
100143.425225
100143.42539
100143.425629
100143.425964
100143.426426
100143.42705
100143.427878
100143.428977
100143.430393
100143.432159
100143.434285
100143.436724
100143.439334
100143.441837
100143.44382
100143.444869
100143.444892
100143.444396
100143.444029
100143.364827
100143.364725
100143.364719
100143.36474
100143.364763
100143.364784
100143.364801
100143.364815
100143.364826
100143.364836
100143.364845
100143.364853
100143.36486
100143.364866
100143.364872
100143.364878
100143.364883
100143.364888
100143.364893
100143.364898
100143.364903
100143.364908
100143.364912
100143.364917
100143.364922
100143.364927
100143.364933
100143.364938
100143.364943
100143.364949
100143.364954
100143.36496
100143.364966
100143.364973
100143.364979
100143.364986
100143.364993
100143.365
100143.365007
100143.365015
100143.365023
100143.365031
100143.365039
100143.365048
100143.365057
100143.365067
100143.365077
100143.365087
100143.365098
100143.365109
100143.365121
100143.365133
100143.365145
100143.365158
100143.365172
100143.365186
100143.3652
100143.365215
100143.365231
100143.365248
100143.365265
100143.365283
100143.365302
100143.365321
100143.365342
100143.365363
100143.365385
100143.365409
100143.365433
100143.365458
100143.365485
100143.365513
100143.365542
100143.365572
100143.365605
100143.365638
100143.365673
100143.36571
100143.365749
100143.36579
100143.365833
100143.365878
100143.365926
100143.365976
100143.366029
100143.366085
100143.366144
100143.366206
100143.366272
100143.366341
100143.366415
100143.366493
100143.366576
100143.366663
100143.366757
100143.366856
100143.366961
100143.367073
100143.367191
100143.367315
100143.367444
100143.367576
100143.367708
100143.367838
100143.367963
100143.368079
100143.368182
100143.368267
100143.368328
100143.368361
100143.368364
100143.368336
100143.368277
100143.36819
100143.36808
100143.36795
100143.367808
100143.367659
100143.36751
100143.36737
100143.367249
100143.367155
100143.367089
100143.367048
100143.367037
100143.367056
100143.3671
100143.367158
100143.367223
100143.367283
100143.367334
100143.367374
100143.367402
100143.367423
100143.367439
100143.367456
100143.367474
100143.367495
100143.367518
100143.367542
100143.367567
100143.367591
100143.367613
100143.367633
100143.36765
100143.367662
100143.36767
100143.367672
100143.367667
100143.367657
100143.36764
100143.367617
100143.367588
100143.367552
100143.367512
100143.367467
100143.367417
100143.367364
100143.367308
100143.367249
100143.367187
100143.367122
100143.367056
100143.366987
100143.366916
100143.366844
100143.366769
100143.366693
100143.366615
100143.366538
100143.36646
100143.366384
100143.366311
100143.366241
100143.366178
100143.366123
100143.36608
100143.36605
100143.366038
100143.36605
100143.366091
100143.36617
100143.366297
100143.366485
100143.366753
100143.36713
100143.367653
100143.368367
100143.369313
100143.370545
100143.372104
100143.37401
100143.376236
100143.378668
100143.381073
100143.383105
100143.384397
100143.384783
100143.384512
100143.384336
100143.306522
100143.306419
100143.306396
100143.306401
100143.306414
100143.306428
100143.306441
100143.306452
100143.306462
100143.30647
100143.306478
100143.306485
100143.306492
100143.306498
100143.306503
100143.306509
100143.306514
100143.306519
100143.306524
100143.306528
100143.306533
100143.306538
100143.306543
100143.306548
100143.306553
100143.306558
100143.306563
100143.306568
100143.306573
100143.306579
100143.306585
100143.30659
100143.306596
100143.306603
100143.306609
100143.306616
100143.306623
100143.30663
100143.306637
100143.306645
100143.306653
100143.306661
100143.306669
100143.306678
100143.306687
100143.306697
100143.306707
100143.306717
100143.306727
100143.306739
100143.30675
100143.306762
100143.306774
100143.306787
100143.306801
100143.306815
100143.306829
100143.306844
100143.30686
100143.306877
100143.306894
100143.306912
100143.30693
100143.30695
100143.30697
100143.306991
100143.307014
100143.307037
100143.307061
100143.307086
100143.307113
100143.30714
100143.307169
100143.3072
100143.307231
100143.307265
100143.3073
100143.307337
100143.307375
100143.307416
100143.307458
100143.307503
100143.30755
100143.3076
100143.307652
100143.307708
100143.307766
100143.307827
100143.307892
100143.307961
100143.308033
100143.30811
100143.308191
100143.308277
100143.308368
100143.308464
100143.308566
100143.308672
100143.308782
100143.308895
100143.309008
100143.30912
100143.309229
100143.309331
100143.309427
100143.309512
100143.309584
100143.309638
100143.309668
100143.309672
100143.309648
100143.309596
100143.309518
100143.309415
100143.309293
100143.309155
100143.309007
100143.308855
100143.308707
100143.308572
100143.308457
100143.308359
100143.30828
100143.308234
100143.308222
100143.308239
100143.308276
100143.308324
100143.308375
100143.308422
100143.308458
100143.308484
100143.308499
100143.308508
100143.308514
100143.308521
100143.308532
100143.308548
100143.30857
100143.308596
100143.308626
100143.308658
100143.30869
100143.308723
100143.308753
100143.30878
100143.308802
100143.308819
100143.308828
100143.308831
100143.308826
100143.308814
100143.308794
100143.308768
100143.308734
100143.308694
100143.308648
100143.308597
100143.308541
100143.308479
100143.308414
100143.308344
100143.308271
100143.308195
100143.308115
100143.308033
100143.307948
100143.307863
100143.307776
100143.307689
100143.307603
100143.30752
100143.307439
100143.307364
100143.307295
100143.307233
100143.307182
100143.307143
100143.307119
100143.307114
100143.307133
100143.30718
100143.307263
100143.307391
100143.30758
100143.307858
100143.308258
100143.308809
100143.309556
100143.310551
100143.311845
100143.313474
100143.315437
100143.317662
100143.319978
100143.322106
100143.32372
100143.324579
100143.324734
100143.324784
100143.248183
100143.248088
100143.24806
100143.248058
100143.248064
100143.248073
100143.248081
100143.24809
100143.248098
100143.248105
100143.248112
100143.248118
100143.248124
100143.24813
100143.248135
100143.24814
100143.248145
100143.24815
100143.248155
100143.248159
100143.248164
100143.248169
100143.248173
100143.248178
100143.248183
100143.248188
100143.248193
100143.248198
100143.248203
100143.248209
100143.248215
100143.24822
100143.248226
100143.248232
100143.248239
100143.248245
100143.248252
100143.248259
100143.248267
100143.248274
100143.248282
100143.24829
100143.248299
100143.248307
100143.248317
100143.248326
100143.248336
100143.248346
100143.248357
100143.248368
100143.248379
100143.248391
100143.248403
100143.248416
100143.24843
100143.248443
100143.248458
100143.248473
100143.248489
100143.248505
100143.248522
100143.24854
100143.248558
100143.248578
100143.248598
100143.248619
100143.248641
100143.248664
100143.248688
100143.248713
100143.248739
100143.248766
100143.248795
100143.248825
100143.248857
100143.24889
100143.248924
100143.24896
100143.248999
100143.249039
100143.249081
100143.249125
100143.249171
100143.24922
100143.249272
100143.249326
100143.249383
100143.249444
100143.249507
100143.249574
100143.249645
100143.249719
100143.249798
100143.24988
100143.249967
100143.250058
100143.250152
100143.250247
100143.250344
100143.250438
100143.250527
100143.250611
100143.250687
100143.250756
100143.250818
100143.250871
100143.250913
100143.250938
100143.250944
100143.250926
100143.250883
100143.250817
100143.250728
100143.250619
100143.250495
100143.250358
100143.250214
100143.250069
100143.249929
100143.249799
100143.249678
100143.249575
100143.2495
100143.249453
100143.249433
100143.249435
100143.249452
100143.249479
100143.249507
100143.249532
100143.249548
100143.249556
100143.249558
100143.249557
100143.249557
100143.249561
100143.249572
100143.249592
100143.249621
100143.249658
100143.249702
100143.249751
100143.249802
100143.249854
100143.249904
100143.24995
100143.249991
100143.250025
100143.250051
100143.250068
100143.250077
100143.250076
100143.250067
100143.250049
100143.250023
100143.249988
100143.249945
100143.249894
100143.249837
100143.249773
100143.249703
100143.249628
100143.249547
100143.249463
100143.249374
100143.249283
100143.24919
100143.249096
100143.249001
100143.248908
100143.248816
100143.248728
100143.248643
100143.248564
100143.248492
100143.248427
100143.248371
100143.248326
100143.248293
100143.248274
100143.248273
100143.248291
100143.248334
100143.248408
100143.248528
100143.248714
100143.248983
100143.249364
100143.249898
100143.250638
100143.251641
100143.252958
100143.254618
100143.256597
100143.258788
100143.260985
100143.262905
100143.264267
100143.264929
100143.265035
100143.18983
100143.189745
100143.189716
100143.189709
100143.189711
100143.189716
100143.189722
100143.189728
100143.189735
100143.189741
100143.189746
100143.189752
100143.189757
100143.189762
100143.189767
100143.189772
100143.189776
100143.189781
100143.189786
100143.18979
100143.189795
100143.189799
100143.189804
100143.189809
100143.189813
100143.189818
100143.189823
100143.189828
100143.189833
100143.189839
100143.189844
100143.18985
100143.189856
100143.189862
100143.189869
100143.189875
100143.189882
100143.189889
100143.189896
100143.189904
100143.189911
100143.18992
100143.189928
100143.189937
100143.189946
100143.189955
100143.189965
100143.189975
100143.189985
100143.189996
100143.190008
100143.190019
100143.190032
100143.190044
100143.190058
100143.190072
100143.190086
100143.190101
100143.190116
100143.190133
100143.190149
100143.190167
100143.190185
100143.190204
100143.190224
100143.190245
100143.190267
100143.19029
100143.190313
100143.190338
100143.190364
100143.190391
100143.190419
100143.190449
100143.19048
100143.190512
100143.190546
100143.190582
100143.19062
100143.190659
100143.1907
100143.190743
100143.190789
100143.190837
100143.190887
100143.19094
100143.190996
100143.191054
100143.191116
100143.19118
100143.191248
100143.191319
100143.191394
100143.191471
100143.191552
100143.191634
100143.191717
100143.191798
100143.191875
100143.191944
100143.192004
100143.192054
100143.192094
100143.192128
100143.192156
100143.19218
100143.192195
100143.192198
100143.192185
100143.192153
100143.192101
100143.192029
100143.19194
100143.191834
100143.191715
100143.191587
100143.191453
100143.191318
100143.191185
100143.191056
100143.190939
100143.190841
100143.190764
100143.190708
100143.190673
100143.190654
100143.190646
100143.190645
100143.190645
100143.190643
100143.190637
100143.190627
100143.190617
100143.190609
100143.190608
100143.190617
100143.190637
100143.190671
100143.190717
100143.190775
100143.190842
100143.190913
100143.190987
100143.19106
100143.191131
100143.191196
100143.191254
100143.191303
100143.191343
100143.191372
100143.19139
100143.191399
100143.191397
100143.191384
100143.191362
100143.19133
100143.191288
100143.191238
100143.191178
100143.191111
100143.191037
100143.190956
100143.19087
100143.190779
100143.190684
100143.190587
100143.190488
100143.190389
100143.190291
100143.190194
100143.190101
100143.190012
100143.189927
100143.189849
100143.189777
100143.189713
100143.189657
100143.18961
100143.189572
100143.189545
100143.18953
100143.189528
100143.189541
100143.189574
100143.189639
100143.189743
100143.189894
100143.19012
100143.190457
100143.190953
100143.191667
100143.192663
100143.193997
100143.195689
100143.197695
100143.199879
100143.202005
100143.203761
100143.204804
100143.20495
100143.13147
100143.131394
100143.131365
100143.131356
100143.131355
100143.131358
100143.131362
100143.131367
100143.131371
100143.131376
100143.131381
100143.131386
100143.13139
100143.131395
100143.131399
100143.131404
100143.131408
100143.131412
100143.131417
100143.131421
100143.131425
100143.13143
100143.131434
100143.131439
100143.131444
100143.131448
100143.131453
100143.131458
100143.131463
100143.131469
100143.131474
100143.13148
100143.131486
100143.131492
100143.131498
100143.131505
100143.131511
100143.131518
100143.131525
100143.131533
100143.131541
100143.131549
100143.131557
100143.131566
100143.131574
100143.131584
100143.131593
100143.131603
100143.131614
100143.131625
100143.131636
100143.131648
100143.13166
100143.131672
100143.131685
100143.131699
100143.131713
100143.131728
100143.131743
100143.131759
100143.131776
100143.131793
100143.131812
100143.13183
100143.13185
100143.131871
100143.131892
100143.131914
100143.131938
100143.131962
100143.131987
100143.132014
100143.132042
100143.132071
100143.132101
100143.132133
100143.132166
100143.132201
100143.132238
100143.132276
100143.132317
100143.132359
100143.132403
100143.132449
100143.132498
100143.132549
100143.132603
100143.132659
100143.132718
100143.132779
100143.132843
100143.13291
100143.132979
100143.13305
100143.133122
100143.133193
100143.133261
100143.133325
100143.133379
100143.13342
100143.133448
100143.133462
100143.133466
100143.133464
100143.133461
100143.133458
100143.133451
100143.133436
100143.13341
100143.133371
100143.133317
100143.133248
100143.133164
100143.133066
100143.132958
100143.132841
100143.132719
100143.132594
100143.13247
100143.13235
100143.13224
100143.132143
100143.13206
100143.131993
100143.131938
100143.131896
100143.131861
100143.13183
100143.131802
100143.131774
100143.131748
100143.131724
100143.131707
100143.1317
100143.131706
100143.131728
100143.131768
100143.131825
100143.131898
100143.131982
100143.132075
100143.13217
100143.132264
100143.132359
100143.132449
100143.132531
100143.132601
100143.132659
100143.132704
100143.132736
100143.132759
100143.13277
100143.132771
100143.132761
100143.132739
100143.132707
100143.132665
100143.132613
100143.132551
100143.132481
100143.132404
100143.132319
100143.132229
100143.132135
100143.132037
100143.131937
100143.131837
100143.131737
100143.131639
100143.131544
100143.131453
100143.131367
100143.131287
100143.131213
100143.131147
100143.131087
100143.131035
100143.130991
100143.130954
100143.130926
100143.130906
100143.130894
100143.130891
100143.130902
100143.130927
100143.130966
100143.131028
100143.131132
100143.131308
100143.131595
100143.132049
100143.13274
100143.133742
100143.135113
100143.136866
100143.138931
100143.141123
100143.143111
100143.144418
100143.144643
100143.073105
100143.073037
100143.07301
100143.072999
100143.072997
100143.072998
100143.073001
100143.073004
100143.073008
100143.073012
100143.073016
100143.07302
100143.073024
100143.073028
100143.073032
100143.073036
100143.07304
100143.073044
100143.073048
100143.073052
100143.073056
100143.073061
100143.073065
100143.073069
100143.073074
100143.073079
100143.073083
100143.073088
100143.073093
100143.073099
100143.073104
100143.073109
100143.073115
100143.073121
100143.073127
100143.073134
100143.07314
100143.073147
100143.073154
100143.073162
100143.073169
100143.073177
100143.073186
100143.073194
100143.073203
100143.073212
100143.073222
100143.073232
100143.073242
100143.073253
100143.073264
100143.073275
100143.073287
100143.0733
100143.073313
100143.073326
100143.07334
100143.073355
100143.07337
100143.073386
100143.073402
100143.073419
100143.073437
100143.073455
100143.073475
100143.073495
100143.073516
100143.073538
100143.073561
100143.073585
100143.07361
100143.073636
100143.073663
100143.073691
100143.073721
100143.073752
100143.073784
100143.073818
100143.073854
100143.073891
100143.07393
100143.073971
100143.074014
100143.074058
100143.074105
100143.074154
100143.074205
100143.074258
100143.074313
100143.074371
100143.07443
100143.074491
100143.074554
100143.074616
100143.074678
100143.074736
100143.074789
100143.074832
100143.074861
100143.074874
100143.074869
100143.074848
100143.074817
100143.074781
100143.074748
100143.07472
100143.074694
100143.074667
100143.074632
100143.074589
100143.074537
100143.074473
100143.074398
100143.074312
100143.074217
100143.074114
100143.074005
100143.073893
100143.073781
100143.07367
100143.073565
100143.073466
100143.073376
100143.073295
100143.073222
100143.073155
100143.073094
100143.073037
100143.072984
100143.072936
100143.072895
100143.072864
100143.072847
100143.072847
100143.072868
100143.072912
100143.072977
100143.073062
100143.073163
100143.073273
100143.073391
100143.073514
100143.073633
100143.07374
100143.073836
100143.073921
100143.073994
100143.074056
100143.074107
100143.074143
100143.074165
100143.074175
100143.074175
100143.074163
100143.07414
100143.074106
100143.074062
100143.074008
100143.073945
100143.073873
100143.073794
100143.073708
100143.073617
100143.073523
100143.073425
100143.073327
100143.073228
100143.073131
100143.073037
100143.072947
100143.072862
100143.072783
100143.07271
100143.072644
100143.072585
100143.072533
100143.072488
100143.07245
100143.072419
100143.072395
100143.072376
100143.072363
100143.07236
100143.072363
100143.072363
100143.072361
100143.072368
100143.072394
100143.072458
100143.072588
100143.072832
100143.073257
100143.073946
100143.074983
100143.076428
100143.078272
100143.080385
100143.082445
100143.083908
100143.084211
100143.014738
100143.014677
100143.01465
100143.014639
100143.014636
100143.014637
100143.014638
100143.014641
100143.014643
100143.014647
100143.01465
100143.014653
100143.014657
100143.01466
100143.014664
100143.014668
100143.014671
100143.014675
100143.014679
100143.014683
100143.014687
100143.014691
100143.014695
100143.0147
100143.014704
100143.014709
100143.014713
100143.014718
100143.014723
100143.014728
100143.014733
100143.014739
100143.014745
100143.014751
100143.014757
100143.014763
100143.014769
100143.014776
100143.014783
100143.01479
100143.014798
100143.014806
100143.014814
100143.014822
100143.014831
100143.01484
100143.01485
100143.014859
100143.01487
100143.01488
100143.014891
100143.014902
100143.014914
100143.014926
100143.014939
100143.014952
100143.014966
100143.014981
100143.014995
100143.015011
100143.015027
100143.015044
100143.015061
100143.01508
100143.015099
100143.015118
100143.015139
100143.01516
100143.015183
100143.015206
100143.01523
100143.015256
100143.015282
100143.01531
100143.015339
100143.015369
100143.0154
100143.015433
100143.015467
100143.015503
100143.015541
100143.01558
100143.015621
100143.015663
100143.015707
100143.015754
100143.015801
100143.015851
100143.015903
100143.015955
100143.016009
100143.016064
100143.016118
100143.016172
100143.016222
100143.016266
100143.016302
100143.016325
100143.01633
100143.016315
100143.016279
100143.016225
100143.01616
100143.016092
100143.016031
100143.015978
100143.015935
100143.015896
100143.015857
100143.015814
100143.015765
100143.015708
100143.015643
100143.015569
100143.015488
100143.015399
100143.015305
100143.015206
100143.015103
100143.015
100143.014897
100143.014796
100143.014699
100143.014604
100143.014514
100143.014427
100143.014343
100143.014265
100143.014193
100143.01413
100143.01408
100143.014047
100143.014036
100143.014049
100143.014089
100143.014155
100143.014245
100143.014356
100143.014484
100143.014622
100143.014759
100143.01489
100143.015015
100143.01513
100143.015234
100143.015324
100143.015401
100143.015466
100143.015517
100143.015557
100143.015585
100143.015597
100143.015595
100143.015581
100143.015556
100143.01552
100143.015475
100143.01542
100143.015356
100143.015284
100143.015205
100143.01512
100143.015031
100143.014939
100143.014845
100143.01475
100143.014657
100143.014566
100143.014478
100143.014395
100143.014318
100143.014247
100143.014182
100143.014124
100143.014073
100143.014029
100143.013992
100143.01396
100143.013935
100143.013918
100143.013909
100143.013904
100143.013902
100143.013896
100143.013886
100143.013872
100143.013858
100143.013848
100143.013852
100143.013885
100143.013981
100143.014199
100143.014618
100143.015338
100143.016448
100143.017996
100143.019909
100143.021903
100143.023419
100143.023778
100142.95637
100142.956314
100142.956289
100142.956278
100142.956275
100142.956274
100142.956275
100142.956277
100142.956279
100142.956281
100142.956284
100142.956287
100142.95629
100142.956293
100142.956296
100142.956299
100142.956303
100142.956306
100142.95631
100142.956314
100142.956318
100142.956322
100142.956326
100142.95633
100142.956334
100142.956339
100142.956343
100142.956348
100142.956353
100142.956358
100142.956363
100142.956368
100142.956374
100142.95638
100142.956386
100142.956392
100142.956398
100142.956405
100142.956412
100142.956419
100142.956426
100142.956434
100142.956442
100142.95645
100142.956459
100142.956468
100142.956477
100142.956487
100142.956497
100142.956507
100142.956518
100142.956529
100142.956541
100142.956553
100142.956565
100142.956578
100142.956592
100142.956606
100142.956621
100142.956636
100142.956652
100142.956668
100142.956685
100142.956703
100142.956721
100142.956741
100142.956761
100142.956782
100142.956803
100142.956826
100142.95685
100142.956874
100142.9569
100142.956927
100142.956955
100142.956984
100142.957014
100142.957045
100142.957078
100142.957113
100142.957148
100142.957186
100142.957224
100142.957264
100142.957306
100142.957349
100142.957393
100142.957439
100142.957486
100142.957534
100142.957581
100142.957629
100142.957675
100142.957718
100142.957756
100142.957786
100142.957805
100142.957809
100142.957792
100142.957752
100142.957688
100142.957603
100142.957507
100142.957409
100142.95732
100142.957244
100142.957182
100142.957132
100142.957088
100142.957046
100142.957001
100142.956952
100142.956897
100142.956835
100142.956767
100142.956691
100142.956608
100142.956519
100142.956426
100142.956328
100142.956227
100142.956124
100142.956019
100142.955914
100142.955809
100142.955705
100142.955604
100142.955509
100142.955424
100142.955351
100142.955297
100142.955266
100142.955261
100142.955286
100142.955341
100142.955424
100142.955533
100142.955667
100142.955813
100142.955962
100142.95611
100142.956253
100142.956388
100142.956512
100142.956623
100142.956721
100142.956805
100142.956874
100142.95693
100142.956972
100142.957001
100142.957018
100142.957021
100142.95701
100142.956985
100142.956949
100142.956903
100142.956849
100142.956786
100142.956715
100142.956639
100142.956557
100142.956472
100142.956384
100142.956296
100142.956207
100142.95612
100142.956036
100142.955956
100142.955881
100142.955812
100142.955749
100142.955692
100142.955641
100142.955594
100142.955559
100142.955529
100142.955507
100142.95549
100142.955477
100142.955468
100142.955462
100142.955457
100142.955451
100142.955442
100142.955429
100142.955415
100142.955401
100142.95539
100142.955384
100142.955399
100142.95548
100142.955695
100142.956142
100142.95693
100142.958146
100142.959779
100142.961599
100142.963073
100142.963461
100142.898002
100142.89795
100142.897926
100142.897915
100142.897911
100142.89791
100142.897911
100142.897912
100142.897913
100142.897915
100142.897917
100142.89792
100142.897922
100142.897925
100142.897928
100142.897931
100142.897934
100142.897938
100142.897941
100142.897945
100142.897948
100142.897952
100142.897956
100142.89796
100142.897964
100142.897968
100142.897973
100142.897977
100142.897982
100142.897987
100142.897992
100142.897997
100142.898003
100142.898009
100142.898014
100142.89802
100142.898027
100142.898033
100142.89804
100142.898047
100142.898054
100142.898062
100142.89807
100142.898078
100142.898087
100142.898095
100142.898104
100142.898114
100142.898124
100142.898134
100142.898144
100142.898155
100142.898167
100142.898179
100142.898191
100142.898204
100142.898217
100142.898231
100142.898245
100142.89826
100142.898275
100142.898291
100142.898308
100142.898325
100142.898343
100142.898362
100142.898381
100142.898402
100142.898423
100142.898445
100142.898468
100142.898491
100142.898516
100142.898542
100142.898569
100142.898597
100142.898626
100142.898656
100142.898687
100142.89872
100142.898753
100142.898788
100142.898825
100142.898862
100142.898901
100142.89894
100142.898981
100142.899022
100142.899064
100142.899106
100142.899147
100142.899187
100142.899224
100142.899257
100142.899283
100142.8993
100142.899304
100142.899289
100142.899252
100142.89919
100142.899102
100142.898992
100142.898868
100142.898742
100142.898625
100142.898525
100142.898443
100142.898379
100142.898328
100142.898283
100142.898241
100142.898198