/*--------------------------------*- C++ -*----------------------------------*\
  =========                 |
  \\      /  F ield         | OpenFOAM: The Open Source CFD Toolbox
   \\    /   O peration     | Website:  https://openfoam.org
    \\  /    A nd           | Version:  12
     \\/     M anipulation  |
\*---------------------------------------------------------------------------*/
FoamFile
{
    format      ascii;
    class       volScalarField;
    location    "10";
    object      p_rgh;
}
// * * * * * * * * * * * * * * * * * * * * * * * * * * * * * * * * * * * * * //

dimensions      [1 -1 -2 0 0 0 0];

internalField   nonuniform List<scalar> 
40000
(
143.509528138
143.510176936
143.510452569
143.510584963
143.510652069
143.510690758
143.510716021
143.510734153
143.510748055
143.510759252
143.510768625
143.510776719
143.510783889
143.510790383
143.510796374
143.510801993
143.510807337
143.510812483
143.510817489
143.510822406
143.510827274
143.510832127
143.510836995
143.510841901
143.510846869
143.510851919
143.510857071
143.510862336
143.510867733
143.510873273
143.510878967
143.51088483
143.510890874
143.510897113
143.510903558
143.510910222
143.510917115
143.510924251
143.510931641
143.510939298
143.510947236
143.510955467
143.510964006
143.510972868
143.510982066
143.510991618
143.511001537
143.511011843
143.51102255
143.511033677
143.511045243
143.511057268
143.511069773
143.511082779
143.511096312
143.511110396
143.511125058
143.511140327
143.511156232
143.511172806
143.511190083
143.511208098
143.51122689
143.511246499
143.511266968
143.511288343
143.511310672
143.511334009
143.511358407
143.511383926
143.511410629
143.511438583
143.51146786
143.511498538
143.5115307
143.511564436
143.511599841
143.511637018
143.511676077
143.511717138
143.511760329
143.511805786
143.511853655
143.511904095
143.511957276
143.512013381
143.512072605
143.512135162
143.512201285
143.512271235
143.512345292
143.512423766
143.512506996
143.512595362
143.512689286
143.51278923
143.512895682
143.513009122
143.513129964
143.513258455
143.513394541
143.513537686
143.513686695
143.513839553
143.513993366
143.514144466
143.514288788
143.514422589
143.514542655
143.514640054
143.514707698
143.514743764
143.51474734
143.514719305
143.514662392
143.514580954
143.514480713
143.514368525
143.514252113
143.514139689
143.5140394
143.513958606
143.513903184
143.513876499
143.513873606
143.513898731
143.513946736
143.51401128
143.514084328
143.514159123
143.514230735
143.514296455
143.514356064
143.514411253
143.514464478
143.514517805
143.514572141
143.514627102
143.514681375
143.514733275
143.514781175
143.514823727
143.514859916
143.514889033
143.514910642
143.514924537
143.514930696
143.514929245
143.514920406
143.51490447
143.514881754
143.514852682
143.514817897
143.514777929
143.514733414
143.514685056
143.514633573
143.514579645
143.514523872
143.514466738
143.5144086
143.514349685
143.5142901
143.51422985
143.514168861
143.514107035
143.514044312
143.513980738
143.513916518
143.513852065
143.51378804
143.513725396
143.513665417
143.513609768
143.513560554
143.513520409
143.513492627
143.51348134
143.513491772
143.513530581
143.513606328
143.513730085
143.513916257
143.514183771
143.514557807
143.515072224
143.51577213
143.516710568
143.517923544
143.519461018
143.521366233
143.523649305
143.52625811
143.529035574
143.531669817
143.533690334
143.534634918
143.534433085
143.533639091
143.533366597
143.50892002
143.510182659
143.510498122
143.5106097
143.51066383
143.51069611
143.510718277
143.510734885
143.510748052
143.510758911
143.510768146
143.510776199
143.510783378
143.510789901
143.510795931
143.510801589
143.510806971
143.510812151
143.51081719
143.510822136
143.510827029
143.510831905
143.510836792
143.510841716
143.510846698
143.510851759
143.510856917
143.510862199
143.510867611
143.51087316
143.510878863
143.510884733
143.510890784
143.510897029
143.51090348
143.510910148
143.510917046
143.510924186
143.51093158
143.51093924
143.51094718
143.510955414
143.510963955
143.510972818
143.510982018
143.510991571
143.511001491
143.511011796
143.511022503
143.511033629
143.511045194
143.511057218
143.511069721
143.511082725
143.511096255
143.511110337
143.511124996
143.511140261
143.511156163
143.511172732
143.511190004
143.511208014
143.5112268
143.511246402
143.511266864
143.511288231
143.511310552
143.511333879
143.511358268
143.511383776
143.511410468
143.51143841
143.511467674
143.511498338
143.511530484
143.511564204
143.511599593
143.511636753
143.511675796
143.511716839
143.511760012
143.511805449
143.511853298
143.511903716
143.511956874
143.512012958
143.512072166
143.51213471
143.512200821
143.512270758
143.512344805
143.512423279
143.512506526
143.51259494
143.512688969
143.51278913
143.512896007
143.513010239
143.513132467
143.51326323
143.513402799
143.513550965
143.513706837
143.513868654
143.514033635
143.514197913
143.514356872
143.514505798
143.514638096
143.514747167
143.514826284
143.514870638
143.51487838
143.514850572
143.514790623
143.514703704
143.514596292
143.514475837
143.514350472
143.51422864
143.514118608
143.514027829
143.513962276
143.51392646
143.513925335
143.513951617
143.514003703
143.514074808
143.51415717
143.514242454
143.51432338
143.514395139
143.514456197
143.514508251
143.514554954
143.514600032
143.514645647
143.514691877
143.514737302
143.514780008
143.51481836
143.514851328
143.514878438
143.51489955
143.514914641
143.514923674
143.514926554
143.514923144
143.514913316
143.514897041
143.514874507
143.514846067
143.514811944
143.514772601
143.51472864
143.514680707
143.514629447
143.514575473
143.514519335
143.514461482
143.514402234
143.514341788
143.514280228
143.514217551
143.514153697
143.514088588
143.514022184
143.513954554
143.513885939
143.513816792
143.513747811
143.513679977
143.513614585
143.513553285
143.513498126
143.513451638
143.513416939
143.513397896
143.513399339
143.513427375
143.513489804
143.513596605
143.513760533
143.51399815
143.51433189
143.514792277
143.515415888
143.51624383
143.517345812
143.518767075
143.520542148
143.522680976
143.525138597
143.527774731
143.530312758
143.532341557
143.533450846
143.533552363
143.533157656
143.53293001
143.507842466
143.510002443
143.510499493
143.510630131
143.510679192
143.510705801
143.510724235
143.5107386
143.510750416
143.510760443
143.510769148
143.510776854
143.510783799
143.510790161
143.510796076
143.510801651
143.510806972
143.510812107
143.51081711
143.510822028
143.5108269
143.510831758
143.51083663
143.51084154
143.510846511
143.510851561
143.510856708
143.51086197
143.510867367
143.510872908
143.510878602
143.510884465
143.510890508
143.510896745
143.510903188
143.510909848
143.510916737
143.510923868
143.510931252
143.510938903
143.510946833
143.510955056
143.510963585
143.510972435
143.510981621
143.510991158
143.511001063
143.51101135
143.511022038
143.511033144
143.511044688
143.511056689
143.511069167
143.511082147
143.51109565
143.511109703
143.511124331
143.511139564
143.511155431
143.511171964
143.511189196
143.511207164
143.511225904
143.511245457
143.511265866
143.511287176
143.511309436
143.511332697
143.511357014
143.511382446
143.511409056
143.511436911
143.511466082
143.511496645
143.511528683
143.511562285
143.511597547
143.511634571
143.511673466
143.511714349
143.511757347
143.511802597
143.511850242
143.511900435
143.511953346
143.512009157
143.512068068
143.512130289
143.512196047
143.512265589
143.512339194
143.51241717
143.512499872
143.512587707
143.512681176
143.512780916
143.512887771
143.513002847
143.513127536
143.513263423
143.513412014
143.513574288
143.513750147
143.513937932
143.514134085
143.514333088
143.514527829
143.514709865
143.514868844
143.514994498
143.515079838
143.515121187
143.515119305
143.515077937
143.515002626
143.514899947
143.514777118
143.514641854
143.514502352
143.514367507
143.514247427
143.514152232
143.514085053
143.514042268
143.514028432
143.514048124
143.514097298
143.514167954
143.514249732
143.51433218
143.514407083
143.514469846
143.514519627
143.51455847
143.514589962
143.514617715
143.514644284
143.51467083
143.514697413
143.514723529
143.514748531
143.514771871
143.514793111
143.514811805
143.514827411
143.514839287
143.514846743
143.51484912
143.514845866
143.514836595
143.514821133
143.514799496
143.514771794
143.514738287
143.514699359
143.514655461
143.514607053
143.514554576
143.514498434
143.514438973
143.514376454
143.514311046
143.514242844
143.514171907
143.514098298
143.514022113
143.513943519
143.513862802
143.513780411
143.513696992
143.513613407
143.513530746
143.513450339
143.51337378
143.51330297
143.513240166
143.513188078
143.51315
143.513129997
143.513133189
143.513166118
143.513237072
143.51335639
143.51353739
143.513799359
143.51417187
143.514692527
143.515409893
143.516364526
143.517609423
143.519189498
143.521127104
143.523396295
143.525887233
143.528372435
143.530509578
143.531938456
143.532498629
143.532440783
143.532545939
143.506548313
143.509720815
143.510464405
143.510642162
143.51069524
143.510718475
143.51073336
143.510745082
143.510755058
143.510763812
143.510771623
143.51077869
143.510785168
143.510791182
143.510796833
143.510802205
143.510807365
143.510812371
143.51081727
143.510822102
143.510826902
143.510831698
143.510836517
143.510841381
143.51084631
143.510851321
143.510856433
143.510861659
143.510867019
143.510872527
143.510878192
143.510884028
143.510890046
143.510896259
143.510902678
143.510909314
143.51091618
143.510923287
143.510930647
143.510938273
143.510946178
143.510954374
143.510962876
143.510971696
143.510980851
143.510990355
143.511000224
143.511010474
143.511021122
143.511032187
143.511043686
143.51105564
143.51106807
143.511080998
143.511094447
143.511108442
143.51112301
143.511138178
143.511153976
143.511170435
143.511187588
143.51120547
143.511224119
143.511243575
143.511263878
143.511285075
143.511307213
143.511330344
143.511354521
143.511379801
143.511406248
143.511433926
143.511462908
143.511493269
143.511525089
143.511558454
143.511593458
143.511630203
143.511668793
143.511709344
143.511751977
143.511796825
143.511844032
143.511893746
143.511946128
143.512001349
143.512059601
143.512121087
143.512186023
143.51225464
143.51232719
143.512403961
143.512485295
143.512571625
143.512663558
143.512762009
143.512868378
143.512984727
143.513113822
143.513258879
143.513422954
143.513608066
143.513814287
143.514038993
143.514276357
143.514517214
143.51474951
143.514959133
143.515131541
143.515255482
143.515327954
143.515350206
143.515327019
143.515264927
143.51517108
143.515052754
143.514917303
143.514772415
143.514626708
143.514490074
143.514371177
143.514267359
143.514180826
143.514127063
143.51411074
143.514127288
143.514169502
143.514228035
143.514292416
143.514352886
143.514402331
143.514437405
143.514458474
143.51446862
143.514472235
143.51447369
143.514476428
143.514482603
143.514493195
143.51450832
143.514527477
143.514549833
143.514574439
143.51460014
143.514625563
143.514649222
143.514669657
143.514685554
143.514695856
143.514699814
143.514696914
143.514686832
143.514669399
143.514644594
143.514612542
143.514573475
143.51452768
143.514475467
143.514417151
143.514353051
143.514283478
143.514208726
143.514129072
143.514044806
143.513956268
143.513863884
143.51376818
143.513669803
143.513569528
143.513468283
143.513367147
143.513267345
143.513170242
143.513077351
143.512990348
143.512911114
143.512841802
143.512784955
143.512743641
143.512721672
143.512723871
143.512756182
143.512825731
143.512942261
143.513122615
143.513395339
143.513797399
143.51435565
143.515117418
143.516136864
143.517467766
143.519150172
143.521187391
143.523514145
143.525965623
143.528272538
143.530116723
143.531265724
143.53178115
143.532284455
143.505131028
143.509362383
143.510394346
143.510642492
143.51070788
143.510730815
143.510743252
143.510752658
143.51076082
143.510768209
143.510775001
143.510781299
143.510787189
143.510792747
143.51079804
143.510803125
143.510808054
143.510812871
143.510817613
143.510822313
143.510827
143.510831699
143.510836433
143.510841222
143.510846083
143.510851033
143.510856088
143.510861261
143.510866567
143.510872024
143.510877643
143.510883436
143.510889412
143.510895585
143.510901964
143.510908562
143.510915389
143.510922458
143.510929779
143.510937366
143.51094523
143.510953384
143.510961841
143.510970616
143.510979722
143.510989175
143.510998989
143.511009182
143.51101977
143.511030771
143.511042204
143.511054089
143.511066445
143.511079295
143.511092663
143.511106571
143.511121047
143.511136118
143.511151812
143.51116816
143.511185194
143.511202949
143.511221461
143.511240769
143.511260915
143.511281942
143.511303896
143.511326829
143.511350793
143.511375845
143.511402045
143.511429457
143.511458151
143.5114882
143.511519684
143.511552685
143.511587293
143.511623603
143.511661719
143.51170175
143.511743811
143.511788027
143.511834534
143.511883474
143.511934999
143.511989267
143.512046444
143.512106713
143.512170263
143.512237292
143.512308012
143.512382662
143.512461546
143.512545118
143.512634132
143.512729897
143.512834598
143.512951571
143.513085286
143.513240834
143.513422864
143.513634192
143.513874399
143.514138686
143.514417206
143.514695193
143.514954271
143.515175379
143.515343152
143.515451407
143.515502195
143.515501691
143.515457988
143.515379443
143.515273885
143.515148513
143.515010235
143.514866234
143.514724132
143.514588964
143.514459648
143.514346464
143.514261899
143.514206143
143.514178911
143.514176473
143.514192146
143.514217389
143.514243357
143.514262577
143.514270303
143.514265143
143.514248809
143.514225205
143.514199224
143.514175639
143.514158299
143.514149723
143.514151126
143.514162703
143.514183684
143.514212556
143.514247629
143.514286945
143.514328171
143.514368843
143.514406681
143.514439836
143.514466869
143.514486724
143.514498562
143.514501781
143.514495917
143.514480659
143.514455865
143.514421546
143.51437784
143.514324981
143.514263272
143.514193083
143.514114854
143.514029091
143.513936363
143.513837307
143.513732647
143.51362321
143.513509933
143.513393852
143.513276096
143.513157875
143.513040465
143.512925196
143.512813424
143.51270653
143.512605931
143.512513088
143.51242956
143.512357132
143.512297905
143.512254408
143.512229752
143.512227585
143.512252215
143.512311404
143.51242182
143.512604659
143.512877712
143.513269689
143.513825791
143.514600956
143.515656535
143.517050522
143.518818446
143.520945246
143.523334451
143.525791534
143.528045873
143.529829822
143.531009801
143.53174137
143.503626047
143.508947653
143.510300413
143.510631719
143.510715964
143.510741449
143.510752687
143.510760334
143.51076692
143.510773033
143.510778816
143.510784318
143.510789578
143.510794631
143.510799516
143.510804269
143.510808923
143.510813509
143.510818057
143.510822592
143.510827137
143.510831711
143.510836336
143.510841026
143.510845799
143.510850668
143.510855648
143.510860751
143.510865992
143.510871384
143.510876943
143.510882677
143.510888598
143.510894716
143.510901042
143.510907586
143.510914361
143.510921376
143.510928644
143.510936176
143.510943984
143.51095208
143.510960477
143.510969188
143.510978228
143.510987612
143.510997353
143.511007469
143.511017977
143.511028893
143.511040237
143.511052028
143.511064286
143.511077033
143.51109029
143.511104082
143.511118435
143.511133374
143.511148927
143.511165125
143.511181999
143.511199582
143.51121791
143.51123702
143.511256953
143.51127775
143.511299458
143.511322123
143.511345799
143.511370541
143.511396406
143.511423456
143.511451759
143.511481383
143.511512405
143.511544905
143.511578965
143.511614675
143.511652133
143.51169144
143.511732703
143.511776036
143.511821561
143.511869406
143.511919707
143.511972603
143.512028232
143.512086736
143.512148258
143.512212939
143.512280918
143.512352353
143.512427476
143.512506718
143.512590959
143.512681908
143.512782588
143.512897706
143.513033592
143.513197395
143.513395482
143.513631349
143.513903524
143.514203985
143.514517647
143.514823498
143.515097698
143.515318952
143.515475384
143.515566339
143.515598357
143.515581206
143.515525039
143.515438963
143.515330627
143.515206495
143.515072531
143.514934077
143.51479404
143.514655022
143.514527087
143.514416774
143.514326504
143.514257048
143.514206883
143.514172128
143.51414708
143.514125179
143.514100268
143.514067828
143.51402584
143.513975054
143.513918613
143.513861217
143.51380809
143.513764052
143.513732854
143.513716809
143.513716768
143.513732514
143.513762532
143.513803619
143.513852931
143.513908397
143.513967233
143.514026223
143.514082521
143.514133944
143.514178156
143.514213581
143.514239294
143.514254684
143.51425912
143.514252103
143.514233303
143.514202581
143.514159988
143.514105742
143.51404021
143.513963889
143.513877403
143.513781505
143.513677076
143.513565117
143.513446741
143.513323162
143.513195687
143.513065686
143.512934572
143.512803765
143.512674667
143.512548631
143.512426929
143.51231075
143.512201228
143.512099412
143.512006282
143.511922965
143.511850841
143.511791455
143.511746479
143.511717831
143.511708101
143.511723735
143.511777609
143.51187874
143.512034501
143.512274106
143.512637532
143.513177316
143.51395872
143.515054135
143.516528446
143.518414746
143.520683459
143.523214662
143.525789575
143.528112408
143.529854249
143.530848022
143.502050892
143.508485116
143.510183225
143.510610468
143.51071927
143.510749817
143.510761036
143.510767523
143.51077285
143.510777855
143.510782713
143.510787458
143.510792096
143.510796638
143.5108011
143.510805499
143.510809856
143.51081419
143.510818522
143.51082287
143.510827251
143.510831682
143.510836178
143.510840753
143.510845421
143.510850194
143.510855085
143.510860106
143.510865267
143.510870585
143.510876071
143.510881735
143.510887587
143.510893638
143.510899897
143.510906375
143.510913083
143.510920031
143.510927231
143.510934693
143.51094243
143.510950452
143.510958772
143.510967404
143.510976361
143.510985657
143.510995307
143.511005327
143.511015734
143.511026545
143.511037777
143.511049451
143.511061585
143.5110742
143.511087319
143.511100964
143.51111516
143.511129933
143.511145309
143.511161317
143.511177989
143.511195355
143.51121345
143.511232309
143.511251972
143.511272479
143.511293874
143.511316203
143.511339514
143.511363861
143.5113893
143.511415891
143.511443694
143.511472777
143.511503209
143.511535064
143.51156842
143.511603358
143.511639964
143.511678332
143.511718559
143.511760744
143.51180499
143.511851405
143.511900098
143.51195118
143.512004751
143.512060904
143.512119713
143.512181235
143.512245503
143.512312554
143.51238249
143.512455651
143.512532943
143.512616364
143.51270965
143.512818799
143.512952016
143.51311867
143.513327088
143.513581593
143.513879528
143.514209294
143.514550426
143.514876435
143.515160137
143.515380366
143.515528771
143.515609411
143.515631557
143.5156068
143.515546457
143.515459722
143.515353688
143.515233845
143.515104877
143.514969468
143.514832353
143.514699775
143.514574261
143.514458735
143.514354713
143.514262209
143.514179586
143.514103687
143.514030424
143.51395566
143.513876171
143.513790457
143.513699195
143.513605213
143.513513009
143.513427952
143.513355378
143.513299802
143.513264349
143.51325039
143.513257221
143.513282575
143.513323719
143.513375623
143.513435825
143.513505201
143.513580968
143.513657958
143.513732239
143.513799736
143.513856823
143.513903814
143.513940447
143.513965884
143.513978994
143.513979038
143.513965498
143.513938116
143.513896878
143.513842012
143.513773971
143.51369341
143.513601171
143.513498267
143.513385875
143.513265321
143.513138049
143.513005598
143.51286956
143.512731551
143.512593167
143.512455943
143.512321314
143.512190578
143.512064857
143.5119451
143.511832173
143.511726823
143.511629517
143.511540861
143.511461881
143.511393494
143.511335902
143.511289844
143.511257806
143.511245555
143.51125717
143.511289799
143.511352153
143.511467616
143.511668865
143.512002389
143.512532289
143.513339267
143.514510574
143.516120108
143.518198932
143.520699905
143.523461579
143.526178314
143.528394503
143.529735462
143.500418371
143.507981316
143.510045775
143.510579803
143.51071803
143.510755808
143.510768047
143.510773926
143.510778313
143.510782401
143.510786454
143.51079051
143.510794567
143.510798617
143.510802663
143.510806707
143.51081076
143.510814833
143.510818937
143.510823086
143.510827291
143.510831565
143.51083592
143.510840367
143.510844918
143.510849583
143.510854374
143.5108593
143.510864373
143.510869605
143.510875008
143.510880591
143.510886364
143.510892335
143.510898516
143.510904915
143.510911544
143.510918411
143.510925529
143.510932908
143.510940558
143.510948491
143.510956719
143.510965255
143.510974111
143.510983303
143.510992843
143.511002749
143.511013035
143.511023718
143.511034817
143.511046349
143.511058334
143.511070791
143.511083742
143.511097209
143.511111216
143.511125787
143.511140948
143.511156728
143.511173153
143.511190256
143.511208069
143.511226626
143.511245962
143.511266118
143.511287134
143.511309054
143.511331925
143.511355795
143.511380718
143.511406748
143.511433945
143.511462367
143.511492078
143.511523145
143.511555638
143.511589629
143.511625192
143.511662407
143.511701354
143.511742119
143.511784785
143.51182943
143.511876131
143.511924957
143.511975961
143.512029173
143.512084587
143.512142152
143.512201769
143.51226331
143.512326689
143.512392063
143.512460226
143.512533254
143.512615334
143.512713489
143.512837642
143.512999439
143.513209494
143.513473465
143.51378809
143.514138844
143.514500775
143.514843192
143.515137068
143.515362234
143.515511667
143.515591701
143.515614132
143.515590607
143.515532404
143.515448782
143.515346835
143.51523169
143.515107429
143.51497923
143.514848882
143.514717535
143.514587386
143.51445999
143.514335972
143.514214937
143.514095576
143.51397595
143.513854019
143.513728304
143.513598551
143.513466205
143.513334533
143.513208348
143.513093396
143.512995541
143.512919933
143.512870247
143.512847991
143.512852089
143.512879254
143.512924269
143.512986665
143.513063563
143.513145872
143.513225706
143.513299903
143.513368918
143.513432947
143.513492377
143.513547744
143.513595691
143.513633408
143.513660509
143.51367675
143.513680715
143.513671239
143.513647614
143.513609476
143.513556828
143.513490015
143.513409703
143.51331684
143.513212619
143.513098439
143.51297587
143.512846606
143.512712421
143.512575114
143.512436464
143.512298175
143.512161828
143.512028831
143.511900383
143.511777442
143.511660691
143.511550756
143.511448356
143.511353354
143.511265549
143.511185708
143.511114166
143.511049569
143.510993513
143.510950535
143.510921449
143.510898214
143.510878374
143.510872558
143.510896594
143.510974195
143.511142815
143.511460219
143.512008346
143.512887246
143.514200521
143.516029723
143.518395993
143.521202908
143.524165845
143.526773958
143.528499686
143.498737985
143.507441144
143.509890162
143.510540466
143.510712609
143.510759536
143.510773686
143.510779428
143.51078316
143.510786518
143.510789887
143.510793338
143.510796866
143.51080046
143.51080411
143.510807811
143.510811565
143.510815376
143.51081925
143.510823194
143.510827216
143.510831325
143.51083553
143.510839841
143.510844265
143.510848814
143.510853494
143.510858317
143.510863292
143.510868429
143.51087374
143.510879232
143.510884915
143.510890797
143.510896887
143.510903196
143.510909733
143.510916508
143.51092353
143.510930811
143.51093836
143.51094619
143.51095431
143.510962734
143.510971475
143.510980545
143.510989958
143.51099973
143.511009876
143.511020411
143.511031354
143.511042721
143.511054531
143.511066803
143.511079558
143.511092816
143.511106601
143.511120935
143.511135845
143.511151354
143.511167492
143.511184286
143.511201768
143.511219969
143.511238924
143.511258667
143.51127924
143.511300681
143.511323036
143.511346348
143.511370665
143.511396039
143.511422521
143.511450166
143.511479028
143.511509166
143.51154064
143.511573511
143.511607841
143.511643693
143.51168113
143.511720213
143.511761002
143.511803546
143.511847883
143.511894034
143.511941992
143.511991714
143.512043103
143.512095989
143.512150123
143.512205184
143.512260853
143.512317022
143.512374219
143.512434348
143.512501684
143.512583833
143.512692054
143.512840132
143.513041281
143.513303361
143.513623865
143.513986997
143.514364975
143.514724105
143.5150336
143.515273152
143.51543591
143.51552681
143.515558431
143.515543502
143.515492818
143.515416024
143.515320921
143.515213569
143.515097064
143.514972399
143.514841429
143.514705423
143.514565351
143.514421769
143.514274748
143.514123943
143.5139688
143.513808908
143.51364445
143.513476675
143.513308274
143.513143551
143.512988264
143.512849123
143.512733012
143.512646089
143.512592864
143.512575376
143.512592657
143.512640503
143.51271574
143.512808681
143.512901906
143.512988861
143.513068381
143.513137854
143.513196195
143.513244016
143.513282426
143.513313058
143.513338168
143.513359707
143.513378368
143.513391305
143.513394898
143.513389997
143.513375316
143.513349656
143.513311942
143.513261542
143.51319822
143.513122189
143.51303409
143.512934929
143.512826018
143.512708913
143.512585341
143.512457131
143.51232615
143.512194229
143.512063098
143.511934324
143.511809258
143.511689003
143.511574407
143.511465883
143.51136365
143.511269156
143.51118101
143.511098213
143.511021925
143.510954267
143.510895464
143.510843965
143.510797652
143.510751687
143.510703142
143.510651791
143.510602311
143.510563978
143.510553387
143.510599397
143.510750345
143.511084058
143.511702663
143.51272527
143.514270655
143.51642082
143.519151088
143.522228514
143.525144755
143.527265335
143.497016581
143.506868226
143.509717877
143.510492921
143.510703488
143.510761219
143.510778017
143.510784015
143.510787334
143.510790124
143.510792926
143.510795854
143.510798915
143.510802093
143.510805375
143.510808752
143.510812219
143.510815774
143.51081942
143.510823159
143.510826995
143.510830936
143.510834986
143.510839153
143.510843445
143.510847868
143.510852432
143.510857143
143.510862011
143.510867046
143.510872255
143.510877647
143.510883231
143.510889013
143.510895004
143.510901211
143.510907645
143.510914315
143.510921229
143.510928399
143.510935835
143.510943546
143.510951544
143.510959842
143.51096845
143.510977382
143.510986651
143.510996271
143.511006257
143.511016624
143.511027389
143.511038568
143.511050178
143.511062239
143.511074769
143.511087789
143.511101319
143.511115383
143.511130004
143.511145205
143.511161013
143.511177454
143.511194557
143.511212351
143.511230869
143.511250143
143.511270209
143.511291104
143.511312869
143.511335543
143.51135917
143.511383794
143.511409459
143.511436214
143.511464104
143.511493178
143.511523484
143.511555071
143.511587987
143.511622277
143.511657984
143.511695143
143.511733784
143.511773922
143.511815554
143.511858649
143.511903135
143.511948891
143.511995722
143.512043337
143.51209133
143.512139182
143.51218632
143.512232315
143.512277314
143.51232281
143.51237276
143.512434794
143.512520878
143.512646502
143.512827593
143.513075181
143.513389391
143.513755586
143.514145429
143.514523505
143.514856914
143.51512327
143.515313684
143.515430707
143.515483947
143.515486087
143.515449325
143.515383666
143.515296637
143.515193405
143.515077513
143.514951091
143.51481539
143.514671061
143.51451837
143.514357354
143.514187981
143.514010355
143.513824998
143.513633205
143.513437412
143.513241493
143.513050887
143.512872474
143.512714131
143.512583962
143.512489279
143.512435396
143.512424403
143.512454978
143.512523831
143.512623702
143.512733584
143.512839407
143.512935949
143.513018894
143.513087004
143.513140151
143.513179133
143.513205371
143.513220461
143.513226034
143.513223692
143.513215007
143.513201552
143.513184584
143.513165317
143.513141404
143.51310981
143.513071207
143.513024785
143.512969727
143.512905309
143.512831213
143.512747575
143.512654886
143.512553997
143.512446066
143.512332486
143.512214808
143.512094681
143.511973764
143.511853627
143.511735682
143.511621142
143.51151095
143.51140583
143.511305638
143.511209166
143.511121183
143.511038456
143.510962987
143.510895203
143.510833721
143.510778713
143.510729046
143.510682519
143.510635458
143.510584903
143.510529143
143.510468196
143.51040455
143.510346562
143.510313652
143.510345477
143.510516964
143.51092575
143.511690489
143.512951111
143.514840383
143.517407559
143.520494759
143.523639859
143.526148441
143.495259445
143.50626588
143.509531184
143.510439396
143.51069109
143.510761023
143.51078112
143.510787711
143.510790821
143.510793185
143.510795525
143.510798008
143.510800659
143.510803466
143.510806413
143.510809488
143.510812683
143.510815994
143.510819417
143.510822954
143.510826605
143.510830375
143.510834268
143.510838288
143.510842441
143.510846735
143.510851175
143.510855768
143.510860522
143.510865446
143.510870547
143.510875831
143.510881306
143.51088698
143.51089286
143.510898957
143.510905277
143.510911829
143.510918624
143.510925671
143.510932979
143.510940559
143.510948421
143.510956577
143.510965038
143.510973816
143.510982924
143.510992375
143.511002183
143.511012362
143.511022927
143.511033895
143.511045282
143.511057105
143.511069384
143.511082136
143.511095382
143.511109143
143.511123439
143.511138295
143.511153733
143.511169778
143.511186456
143.511203795
143.511221823
143.511240571
143.511260072
143.511280357
143.511301462
143.511323424
143.511346278
143.511370062
143.511394814
143.511420572
143.511447375
143.511475259
143.511504261
143.511534413
143.51156575
143.511598296
143.511632074
143.511667091
143.511703345
143.511740813
143.511779447
143.511819163
143.511859826
143.511901235
143.511943098
143.511985009
143.512026414
143.512066608
143.512104774
143.512140153
143.512172442
143.51220255
143.512233763
143.512273129
143.51233252
143.512428345
143.512578895
143.512798969
143.513093116
143.513450531
143.513844989
143.514240976
143.514603469
143.514906513
143.515136999
143.515293449
143.515382183