/*--------------------------------*- C++ -*----------------------------------*\
  =========                 |
  \\      /  F ield         | OpenFOAM: The Open Source CFD Toolbox
   \\    /   O peration     | Website:  https://openfoam.org
    \\  /    A nd           | Version:  12
     \\/     M anipulation  |
\*---------------------------------------------------------------------------*/
FoamFile
{
    format      ascii;
    class       surfaceScalarField;
    location    "10";
    object      phi;
}
// * * * * * * * * * * * * * * * * * * * * * * * * * * * * * * * * * * * * * //

dimensions      [1 0 -1 0 0 0 0];

internalField   nonuniform List<scalar> 
79600
(
-9.0705580647e-06
9.0702593394e-06
-9.60744243871e-06
5.36613306518e-07
-7.90304496702e-06
-1.70466472253e-06
-6.20641112553e-06
-1.69690218625e-06
-4.91868820411e-06
-1.28799239427e-06
-4.00601033229e-06
-9.12948092682e-07
-3.36490936194e-06
-6.41371717623e-07
-2.90718950001e-06
-4.57990902109e-07
-2.57296517824e-06
-3.34495417823e-07
-2.32309898392e-06
-2.50137228273e-07
-2.13218190787e-06
-1.91188099031e-07
-1.98353224913e-06
-1.48920742361e-07
-1.86598360405e-06
-1.17819804456e-07
-1.77188971101e-06
-9.43650876062e-08
-1.69588994355e-06
-7.62709514229e-08
-1.63413828317e-06
-6.20228152715e-08
-1.58381425578e-06
-5.05951686851e-08
-1.54280757699e-06
-4.12778269339e-08
-1.50951103755e-06
-3.35676991704e-08
-1.48268129347e-06
-2.71009106554e-08
-1.46134278171e-06
-2.16096804444e-08
-1.44472014153e-06
-1.68937873585e-08
-1.43219090126e-06
-1.28003687388e-08
-1.42325295647e-06
-9.20907667895e-09
-1.41750368764e-06
-6.02043225097e-09
-1.41463094711e-06
-3.14392055006e-09
-1.41437717079e-06
-5.24949312871e-10
-1.41664819393e-06
1.99987820616e-09
-1.42117938297e-06
4.26004819863e-09
-1.42770669493e-06
6.2561581253e-09
-1.43607610411e-06
8.09824035602e-09
-1.44617609306e-06
9.82883099662e-09
-1.45790251686e-06
1.14552815472e-08
-1.47116771802e-06
1.2994041821e-08
-1.48590158674e-06
1.44626818496e-08
-1.50204958978e-06
1.58767972823e-08
-1.51957037295e-06
1.72496038329e-08
-1.53843375704e-06
1.85922180411e-08
-1.55861915171e-06
1.99142349141e-08
-1.58011453944e-06
2.12242173124e-08
-1.60291570046e-06
2.25299983691e-08
-1.62702556537e-06
2.38387453695e-08
-1.65245376758e-06
2.51570796159e-08
-1.67921626746e-06
2.64913215288e-08
-1.70733516534e-06
2.78476337254e-08
-1.73683854322e-06
2.923208471e-08
-1.76776036534e-06
3.06505880589e-08
-1.80014043243e-06
3.21089342949e-08
-1.83402446356e-06
3.36129508497e-08
-1.86946410488e-06
3.51685502676e-08
-1.90651701823e-06
3.67817755332e-08
-1.94524696301e-06
3.84587603321e-08
-1.98572384833e-06
4.02056901015e-08
-2.02802401463e-06
4.20289229129e-08
-2.07223030989e-06
4.39350255795e-08
-2.11843241052e-06
4.59308608632e-08
-2.16672728353e-06
4.80236874232e-08
-2.21721970057e-06
5.02212905343e-08
-2.27002311796e-06
5.25322722667e-08
-2.32526046145e-06
5.49661541005e-08
-2.38306511666e-06
5.75334351588e-08
-2.44358192993e-06
6.02456243131e-08
-2.50696817724e-06
6.31151200234e-08
-2.57339461185e-06
6.61553036731e-08
-2.64304623321e-06
6.93804573614e-08
-2.71612314514e-06
7.2805665506e-08
-2.79284155501e-06
7.64470907789e-08
-2.87343502863e-06
8.03221723329e-08
-2.95815612213e-06
8.44498214021e-08
-3.04727802506e-06
8.88506900992e-08
-3.14109662205e-06
9.35474512273e-08
-3.23993317102e-06
9.85654253754e-08
-3.34413746238e-06
1.03933138509e-07
-3.45409093071e-06
1.09682223448e-07
-3.57020937953e-06
1.1584718649e-07
-3.69294642612e-06
1.22465838109e-07
-3.82279780775e-06
1.29580215233e-07
-3.96030614262e-06
1.37237178677e-07
-4.10606576051e-06
1.45488356781e-07
-4.26072732234e-06
1.54390176343e-07
-4.42500380856e-06
1.64005120036e-07
-4.59967898496e-06
1.74403929966e-07
-4.78561741711e-06
1.85667311253e-07
-4.98377573349e-06
1.978872023e-07
-5.1952161191e-06
2.11169143428e-07
-5.42112388764e-06
2.25636434142e-07
-5.66283074018e-06
2.4143548263e-07
-5.92184331847e-06
2.58741200651e-07
-6.19987764558e-06
2.77762986657e-07
-6.49890373431e-06
2.98754750354e-07
-6.82120636942e-06
3.22031291272e-07
-7.16946679577e-06
3.47989062331e-07
-7.54686497652e-06
3.77126596888e-07
-7.95719395743e-06
4.10056782304e-07
-8.40496286164e-06
4.4749504068e-07
-8.89543249793e-06
4.90191351337e-07
-9.43447202599e-06
5.38750378466e-07
-1.00280485601e-05
5.9326228605e-07
-1.06810843104e-05
6.52667515767e-07
-1.13953998278e-05
7.13839853099e-07
-1.21666198113e-05
7.70546987287e-07
-1.29803836831e-05
8.12757692629e-07
-1.38089909468e-05
8.27085746765e-07
-1.46103588083e-05
7.99116859569e-07
-1.53311543028e-05
7.17598251941e-07
-1.59146230979e-05
5.79141436729e-07
-1.63112544803e-05
3.91045874836e-07
-1.64892942116e-05
1.71108810454e-07
-1.64486521277e-05
-4.90694362821e-08
-1.61712963112e-05
-2.87559497045e-07
-1.56658656282e-05
-5.17134519083e-07
-1.49462544139e-05
-7.3238574692e-07
-1.40417347493e-05
-9.17842072154e-07
-1.29947769732e-05
-1.06030713958e-06
-1.18557775969e-05
-1.15193166098e-06
-1.06781728422e-05
-1.18978946689e-06
-9.51508469261e-06
-1.17431146322e-06
-8.41723460479e-06
-1.10799847083e-06
-7.43139444038e-06
-9.94877511628e-07
-6.59871391984e-06
-8.40627296154e-07
-5.95245868267e-06
-6.53172687386e-07
-5.51507290318e-06
-4.43365981191e-07
-5.29516974873e-06
-2.25065729046e-07
-5.28372412573e-06
-1.59580814062e-08
-5.51464361411e-06
2.26696006987e-07
-5.96762929572e-06
4.48932620874e-07
-6.58699315398e-06
6.15382309203e-07
-7.30397286579e-06
7.1294776063e-07
-8.05711846025e-06
7.48928177609e-07
-8.80785979741e-06
7.4621093003e-07
-9.54183927868e-06
7.29041345112e-07
-1.02705338594e-05
7.23303553293e-07
-1.10237240311e-05
7.47349861597e-07
-1.18346798313e-05
8.04702959702e-07
-1.272490433e-05
8.83611778018e-07
-1.36943402704e-05
9.62526403783e-07
-1.47202445401e-05
1.01878217496e-06
-1.57640059286e-05
1.03655278176e-06
-1.67817362697e-05
1.01061957543e-06
-1.77337953786e-05
9.45286493392e-07
-1.85904433303e-05
8.50480749214e-07
-1.93335547657e-05
7.37793450471e-07
-1.99558436746e-05
6.17986429352e-07
-2.04590553916e-05
4.99977560396e-07
-2.08519451618e-05
3.90659536591e-07
-2.11484014577e-05
2.95075867616e-07
-2.13658647793e-05
2.16733410204e-07
-2.15240991321e-05
1.5795429962e-07
-2.16442744652e-05
1.20173773465e-07
-2.17483452368e-05
1.04219309767e-07
-2.18588170871e-05
1.10684719615e-07
-2.19987399113e-05
1.40148567566e-07
-2.21891975557e-05
1.90668525515e-07
-2.24504823136e-05
2.61467408928e-07
-2.28022823607e-05
3.51948659086e-07
-2.32627548912e-05
4.60584579592e-07
-2.38481492959e-05
5.85468424246e-07
-2.45725722366e-05
7.24457630084e-07
-2.54477801956e-05
8.75201938291e-07
-2.64829840272e-05
1.03515572263e-06
-2.76846692509e-05
1.2015940249e-06
-2.90564575541e-05
1.3716537889e-06
-3.05990493212e-05
1.54241470036e-06
-3.23102746483e-05
1.71100758832e-06
-3.41852500442e-05
1.87472005808e-06
-3.62166165782e-05
2.03107773232e-06
-3.83948368871e-05
2.17790293689e-06
-4.07085401035e-05
2.31336256618e-06
-4.31449020797e-05
2.43600335027e-06
-4.56900335903e-05
2.5447599189e-06
-4.83293383854e-05
2.63892482071e-06
-5.1047802115e-05
2.71807938891e-06
-5.3830198886e-05
2.78201135308e-06
-5.6661157646e-05
2.83057477975e-06
-5.95251035147e-05
2.86356519647e-06
-6.24060461879e-05
2.88056670835e-06
-6.52871817687e-05
2.88076534169e-06
-6.81502870563e-05
2.86274139631e-06
-7.09748631139e-05
2.82421874229e-06
-7.37369587904e-05
2.7617448695e-06
-7.64075985328e-05
2.67029523526e-06
-7.89507123341e-05
2.54277540966e-06
-8.1320293275e-05
2.36924851132e-06
-8.34561786096e-05
2.13555852062e-06
-8.52781298096e-05
1.82162951728e-06
-8.66808594398e-05
1.40241268766e-06
-8.75339651527e-05
8.52793136472e-07
-8.7630407373e-05
9.61336562581e-08
-8.67630524202e-05
-8.67659282779e-07
-8.46288628682e-05
-2.13449754603e-06
-8.09216748961e-05
-3.7075001264e-06
-7.5325932801e-05
-5.5960585092e-06
-6.75340341374e-05
-7.7922196361e-06
-5.72955637818e-05
-1.02387966288e-05
-4.45116144446e-05
-1.27842822232e-05
-2.94332030408e-05
-1.50787529505e-05
-1.31295437553e-05
-1.63040131789e-05
1.51801200397e-06
-1.46479313385e-05
6.84660353303e-06
-5.32886577275e-06
6.84631610133e-06
-7.37501027171e-06
1.6444976009e-05
-1.00872997558e-05
3.24863783311e-06
-9.98981693778e-06
-1.80241260536e-06
-9.10489259576e-06
-2.58209486207e-06
-8.14804557657e-06
-2.24510945601e-06
-7.30804620353e-06
-1.7532180358e-06
-6.61294295814e-06
-1.33674567226e-06
-6.04843635531e-06
-1.02276837614e-06
-5.59089859289e-06
-7.92304266064e-07
-5.21862581491e-06
-6.22681205229e-07
-4.91394595827e-06
-4.96139150161e-07
-4.66303731919e-06
-4.00100519244e-07
-4.45522942341e-06
-3.25898813089e-07
-4.28229574526e-06
-2.67569897098e-07
-4.13786779121e-06
-2.20970073145e-07
-4.0169814776e-06
-1.83180321509e-07
-3.91573550995e-06
-1.52112335017e-07
-3.83103653451e-06
-1.2624798071e-07
-3.76040957579e-06
-1.04465813898e-07
-3.70185701952e-06
-8.59245954514e-08
-3.65375366721e-06
-6.9984164601e-08
-3.61476792749e-06
-5.61506817953e-08
-3.58380197705e-06
-4.40374832486e-08
-3.5599459972e-06
-3.33362090502e-08
-3.54244282286e-06
-2.37947604859e-08
-3.53065758772e-06
-1.52003201086e-08
-3.52409315621e-06
-7.36056222084e-09
-3.52232087546e-06
-4.35484159236e-11
-3.52509235599e-06
6.76040851716e-09
-3.53210168564e-06
1.2994361615e-08
-3.54300851415e-06
1.87338858101e-08
-3.55751446496e-06
2.40635448789e-08
-3.5753822839e-06
2.90518860024e-08
-3.59641878969e-06
3.37593936921e-08
-3.62046661782e-06
3.82394055011e-08
-3.64739911796e-06
4.25381630574e-08
-3.67711596123e-06
4.66952909429e-08
-3.70953967155e-06
5.07447500636e-08
-3.74461270251e-06
5.47160832151e-08
-3.78229512919e-06
5.86354343771e-08
-3.82256276273e-06
6.25263519747e-08
-3.86540564133e-06
6.64103444749e-08
-3.91082699282e-06
7.03072222956e-08
-3.95884235482e-06
7.42355941692e-08
-4.00947898505e-06
7.82132248757e-08
-4.06277535193e-06
8.22573547544e-08
-4.11878088536e-06
8.63849063959e-08
-4.17755578821e-06
9.06125620239e-08
-4.23917111262e-06
9.49570068932e-08
-4.30370887266e-06
9.94350678218e-08
-4.37126217806e-06
1.04063860928e-07
-4.44193557953e-06
1.08860918944e-07
-4.51584525398e-06
1.13844170978e-07
-4.59311957394e-06
1.19032116975e-07
-4.67389961786e-06
1.24443968995e-07
-4.75833974975e-06
1.30099864104e-07
-4.84660845482e-06
1.36021177841e-07
-4.93888910151e-06
1.42230698912e-07
-5.03538110301e-06
1.48753057757e-07
-5.13630116957e-06
1.55615036464e-07
-5.24188466749e-06
1.62845716473e-07
-5.3523871364e-06
1.70476784966e-07
-5.46808586062e-06
1.78542541259e-07
-5.58928181793e-06
1.87079997984e-07
-5.71630171616e-06
1.9612918038e-07
-5.84950031372e-06
2.05733166641e-07
-5.98926284926e-06
2.15938487972e-07
-6.1360076799e-06
2.2679579605e-07
-6.29018962063e-06
2.38360465232e-07
-6.45230360178e-06
2.50693315927e-07
-6.62288879102e-06
2.63861278636e-07
-6.80253300808e-06
2.77938316771e-07
-6.9918777778e-06
2.93006722268e-07
-7.1916248062e-06
3.091581192e-07
-7.4025429992e-06
3.26494182956e-07
-7.62547599981e-06
3.45127580418e-07
-7.86135058392e-06
3.65183498953e-07
-8.11118633036e-06
3.86801693171e-07
-8.3761077707e-06
4.10138670853e-07
-8.65735882362e-06
4.35370068049e-07
-8.95631902811e-06
4.62694017953e-07
-9.27452268671e-06
4.9233611242e-07
-9.61368238157e-06
5.24555462333e-07
-9.97571812836e-06
5.59651517872e-07
-1.03627931553e-05
5.97972853788e-07
-1.07773579253e-05
6.39929914699e-07
-1.12222070767e-05
6.86013333086e-07
-1.17005564851e-05
7.36819261558e-07
-1.22161492636e-05
7.9308439143e-07
-1.27734021911e-05
8.55736236245e-07
-1.33776092929e-05
9.25966690873e-07
-1.40352278688e-05
1.0053352635e-06
-1.47542746922e-05
1.09589912009e-06
-1.55448380356e-05
1.20034042251e-06
-1.64196355273e-05
1.32199866814e-06
-1.73943722524e-05
1.4645991904e-06
-1.8487344337e-05
1.63131279084e-06
-1.97173557899e-05
1.82269163357e-06
-2.1098861056e-05
2.03325213945e-06
-2.26338583632e-05
2.24730988706e-06
-2.43018582988e-05
2.4360341917e-06
-2.60516778344e-05
2.55862114969e-06
-2.77999516475e-05
2.56950398987e-06
-2.94392979548e-05
2.43036134705e-06
-3.08545943607e-05
2.12239638054e-06
-3.19418687274e-05
1.65359146917e-06
-3.26239012566e-05
1.05816569179e-06
-3.28589692007e-05
3.89454495764e-07
-3.2631196052e-05
-2.95273950799e-07
-3.19795931779e-05
-9.58505339591e-07
-3.09592883436e-05
-1.55639549103e-06
-2.96575729915e-05
-2.05171244683e-06
-2.81688515639e-05
-2.42225806319e-06
-2.65807759692e-05
-2.66192152112e-06
-2.49687810777e-05
-2.77530340167e-06
-2.3396067373e-05
-2.7718458679e-06
-2.19159864273e-05
-2.66188878333e-06
-2.05746407971e-05
-2.45519696688e-06
-1.94125199863e-05
-2.16140398577e-06
-1.84650515555e-05
-1.79123891315e-06
-1.77630145699e-05
-1.35726938545e-06
-1.73354328132e-05
-8.72112463382e-07
-1.72297715377e-05
-3.31232851399e-07
-1.75385514267e-05
2.9249845668e-07
-1.82803388417e-05
9.68108664764e-07
-1.94368822562e-05
1.60479021901e-06
-2.09742548816e-05
2.15136326434e-06
-2.28483015612e-05
2.58453367107e-06
-2.50076741822e-05
2.90455864053e-06
-2.73951916422e-05
3.12873567633e-06
-2.99536886675e-05
3.28158546171e-06
-3.26224785072e-05
3.38564988185e-06
-3.5335759949e-05
3.4541857492e-06
-3.80263959377e-05
3.48925272674e-06
-4.06333411697e-05
3.48501565792e-06
-4.31079448724e-05
3.43219158516e-06
-4.54156679928e-05
3.32217931913e-06
-4.753409911e-05
3.15128185208e-06
-4.94494181456e-05
2.92287896146e-06
-5.11538088579e-05
2.64726546671e-06
-5.26447605556e-05
2.33964066573e-06
-5.39254420645e-05
2.01723497348e-06
-5.50051202602e-05
1.69687617121e-06
-5.58991837674e-05
1.39358851411e-06
-5.66285663377e-05
1.11981230014e-06
-5.721863051e-05
8.85035789527e-07
-5.76977390574e-05
6.95789016246e-07
-5.80958397509e-05
5.56002984212e-07
-5.84431981821e-05
4.67451393441e-07
-5.87693497714e-05
4.30247021965e-07
-5.91022259234e-05
4.43389793891e-07
-5.94673770654e-05
5.05083053392e-07
-5.98891939683e-05
6.12227652448e-07
-6.0389171504e-05
7.61151277541e-07
-6.09853667077e-05
9.47819675209e-07
-6.16927996819e-05
1.16766793282e-06
-6.252331065e-05
1.41560886206e-06
-6.34853946851e-05
1.68615412841e-06
-6.45841315814e-05
1.97353773717e-06
-6.58212112928e-05
2.27182406694e-06
-6.71950487384e-05
2.57501317242e-06
-6.87009745439e-05
2.87715775608e-06
-7.03314799636e-05
3.1724981509e-06
-7.20764995505e-05
3.45560844425e-06
-7.3923729659e-05
3.72153787947e-06
-7.5858985576e-05
3.9659308407e-06
-7.78665905023e-05
4.18511743034e-06
-7.99297744673e-05
4.37617102378e-06
-8.20310594296e-05
4.53692960675e-06
-8.41526062959e-05
4.66596605013e-06
-8.62765070072e-05
4.76250338084e-06
-8.83850103501e-05
4.82627931769e-06
-9.04606325928e-05
4.85734858007e-06
-9.24861870576e-05
4.85586174962e-06
-9.44446855948e-05
4.82181236718e-06
-9.631907543e-05
4.75471959189e-06
-9.80918130928e-05
4.65327860786e-06
-9.97442491597e-05
4.51496373527e-06
-0.000101255796935
4.33556158908e-06
-0.000102602826891
4.10857681838e-06
-0.000103757209289
3.82448478829e-06
-0.00010468440748
3.46978441821e-06
-0.000105340964548
3.02561875728e-06
-0.000105671312633
2.46572119575e-06
-0.000105603449626
1.75358201393e-06
-0.000105038359545
8.37138548642e-07
-0.000103844119077
-3.41631515656e-07
-0.000101940106544
-1.80808144537e-06
-9.91622565781e-05
-3.64573203626e-06
-9.53706784345e-05
-5.92630941134e-06
-9.03424642066e-05
-8.73595802487e-06
-8.38078925175e-05
-1.21308836168e-05
-7.54888832639e-05
-1.61114924022e-05
-6.51548453745e-05
-2.0573109175e-05
-5.27249865058e-05
-2.52144286931e-05
-3.84496209713e-05
-2.93544217627e-05
-2.31937390803e-05
-3.15602174082e-05
-8.90183818024e-06
-2.8940175011e-05
1.63089987153e-06
-1.58619577741e-05
8.47692144258e-06
-5.95310319162e-06
2.23977886602e-05
-8.99024050275e-06
6.28551325524e-06
-9.72198256129e-06
-1.0709347185e-06
-9.53943101886e-06
-2.76491481555e-06
-9.06602880624e-06
-2.71878201929e-06
-8.53689703346e-06
-2.28262077521e-06
-8.03420137057e-06
-1.83971236679e-06
-7.58380293877e-06
-1.47343779632e-06
-7.19035429218e-06
-1.18602392985e-06
-6.85066762026e-06
-9.62638980371e-07
-6.55897487434e-06
-7.88103078952e-07
-6.30905760981e-06
-6.50288981295e-07
-6.09509257817e-06
-5.40135017744e-07
-5.91194308773e-06
-4.50990540373e-07
-5.75520853082e-06
-3.77975776285e-07
-5.62117422738e-06
-3.17485772883e-07
-5.50672649656e-06
-2.66831226079e-07
-5.40926196326e-06
-2.23983694596e-07
-5.32660340496e-06
-1.87395539644e-07
-5.25692656806e-06
-1.55872584557e-07
-5.19869868892e-06
-1.28483179748e-07
-5.15062790059e-06
-1.04492622719e-07
-5.11162176958e-06
-8.33148016869e-08
-5.08075315709e-06
-6.44760164417e-08
-5.05723170307e-06
-4.75873992304e-08
-5.04037997357e-06
-3.23232085518e-08
-5.02961443664e-06
-1.83972652957e-08
-5.02439300108e-06
-5.5361525754e-09
-5.0243803719e-06
6.47661507605e-09
-5.02931048301e-06
1.76533251142e-08
-5.03888743964e-06
2.80396986792e-08
-5.05282870532e-06
3.77336316188e-08
-5.07088432854e-06
4.68363035328e-08
-5.09284218138e-06
5.54460286432e-08
-5.11852466722e-06
6.36507160297e-08
-5.1477852282e-06
7.15275532817e-08
-5.18050494512e-06
7.91438294168e-08
-5.21658969999e-06
8.65583140642e-08
-5.25596755156e-06
9.38227686439e-08
-5.29858661055e-06
1.0098336873e-07
-5.34441324669e-06
1.08081834874e-07
-5.39343057532e-06
1.15156435668e-07
-5.44563732145e-06
1.22242639679e-07
-5.5010468281e-06
1.29373775009e-07
-5.55968645031e-06
1.36581605401e-07
-5.6215970173e-06
1.43896778481e-07
-5.68683258004e-06
1.51349352141e-07
-5.75546022073e-06
1.58969057492e-07
-5.82756003204e-06
1.66785645595e-07
-5.90322534345e-06
1.74829174236e-07
-5.98256288314e-06
1.83130187468e-07
-6.06569325392e-06
1.91720021888e-07
-6.1527512972e-06
2.00630916139e-07
-6.24388668859e-06
2.09896248289e-07
-6.33926472493e-06
2.19550821798e-07
-6.43906710336e-06
2.29631110693e-07
-6.54349294395e-06
2.40175828835e-07
-6.65275977628e-06
2.51226288294e-07
-6.76710479404e-06
2.62826813098e-07
-6.88678632973e-06
2.75025344186e-07
-7.01208548108e-06
2.87873700814e-07
-7.14330796064e-06
3.01428066925e-07
-7.28078611815e-06
3.15749434041e-07
-7.42488126629e-06
3.3090381655e-07
-7.57598631087e-06
3.46962873822e-07
-7.73452890277e-06
3.64004442743e-07
-7.90097482488e-06
3.8211312561e-07
-8.07583161595e-06
4.01381370642e-07
-8.25965293609e-06
4.21910598622e-07
-8.45304333626e-06
4.43812503666e-07
-8.65666376023e-06
4.67210458467e-07
-8.87123772055e-06
4.92240955232e-07
-9.09755788198e-06
5.19055542574e-07
-9.33649405423e-06
5.47823024238e-07
-9.58900277185e-06
5.78731691851e-07
-9.85613834294e-06
6.11991906571e-07
-1.01390655516e-05
6.47839314139e-07
-1.04390741373e-05
6.86538791082e-07
-1.07575960701e-05
7.28389193293e-07
-1.10962264484e-05
7.73729171651e-07
-1.14567482216e-05
8.22944598686e-07
-1.18411617307e-05
8.76478385675e-07
-1.22517210007e-05
9.34843354315e-07
-1.26909795973e-05
9.98638643286e-07
-1.31618492517e-05
1.06857101088e-06
-1.36676750463e-05
1.14548421286e-06
-1.42123341034e-05
1.23040089939e-06
-1.48003696979e-05
1.32458331625e-06
-1.54371795254e-05
1.42962256272e-06
-1.61292858231e-05
1.54757055364e-06
-1.68847239948e-05
1.6811317662e-06
-1.77135890898e-05
1.83392388088e-06
-1.8628754399e-05
2.01077841965e-06
-1.96466767528e-05
2.21795141285e-06
-2.07879623009e-05
2.46290981791e-06
-2.20769421965e-05
2.75305909642e-06
-2.3539004439e-05
3.09254497947e-06
-2.51942737196e-05
3.47652657837e-06
-2.7047167134e-05
3.88364180894e-06
-2.90738259831e-05
4.26975861266e-06
-3.12124377548e-05
4.56799423459e-06
-3.33623970932e-05
4.69880411103e-06
-3.53951828768e-05
4.58893717704e-06
-3.7174325702e-05
4.19249065993e-06
-3.85779724298e-05
3.50569404283e-06
-3.95177419836e-05
2.570362639e-06
-3.99502954499e-05
1.46600821039e-06
-3.98789428876e-05
2.92735525976e-07
-3.9346827763e-05
-8.52284461179e-07
-3.84507098407e-05
-1.87715824157e-06
-3.73088120289e-05
-2.71763987662e-06
-3.60335339078e-05
-3.34289370842e-06
-3.47151020586e-05
-3.75330400073e-06
-3.34214190311e-05
-3.96529995355e-06
-3.22035912061e-05
-4.00034689277e-06
-3.11026280819e-05
-3.87796322062e-06
-3.01551711347e-05
-3.61279449304e-06
-2.93979098346e-05
-3.21448574162e-06
-2.88712580135e-05
-2.6888852063e-06
-2.86234695359e-05
-2.03884587011e-06
-2.87181740698e-05
-1.2615630417e-06
-2.9264211765e-05
-3.24512584606e-07
-3.03591841893e-05
7.65423077055e-07
-3.19400547014e-05
1.8752931138e-06
-3.38752873929e-05
2.90521757623e-06
-3.61027842483e-05
3.83335592327e-06
-3.85891351798e-05
4.63748889238e-06
-4.13050377702e-05
5.29878573169e-06
-4.42120166291e-05
5.80866672669e-06
-4.72571416257e-05
6.17020671891e-06
-5.03747616884e-05
6.39528671122e-06
-5.34921915687e-05
6.49935193302e-06
-5.65377380707e-05
6.49650095608e-06
-5.94480681117e-05
6.39699024304e-06
-6.21724275034e-05
6.20744052655e-06
-6.46741867438e-05
5.93262454654e-06
-6.69307923736e-05
5.57798776241e-06
-6.89320047249e-05
5.15213551998e-06
-7.06773956192e-05
4.66825155175e-06
-7.21740276609e-05
4.14411506286e-06
-7.34348662909e-05
3.60082676643e-06
-7.44776458699e-05
3.06039332367e-06
-7.53238501164e-05
2.5434079866e-06
-7.59980614481e-05
2.06801551984e-06
-7.65272817198e-05
1.6490990224e-06
-7.69399371013e-05
1.29759227844e-06
-7.72647503091e-05
1.0203384638e-06
-7.75296986744e-05
8.20534514349e-07
-7.7761217801e-05
6.98419153813e-07
-7.79836176597e-05
6.5198283457e-07
-7.82187084109e-05
6.77726439045e-07
-7.84855949583e-05
7.71147186649e-07
-7.88010199043e-05
9.26781980019e-07
-7.91791267273e-05
1.13835728451e-06
-7.96312008957e-05
1.3989786676e-06
-8.01656118648e-05
1.7011631037e-06
-8.07878108952e-05
2.03690326114e-06
-8.15003418019e-05
2.39780161615e-06
-8.23028926849e-05
2.77523491278e-06
-8.3192408764e-05
3.1605232537e-06
-8.41632713204e-05
3.5451015495e-06
-8.52075396824e-05
3.92069954956e-06
-8.63152480768e-05
4.2795315824e-06
-8.74747452867e-05
4.61448532532e-06
-8.86730617491e-05
4.91929069342e-06
-8.98962894831e-05
5.18865281657e-06
-9.1129961348e-05
5.41834178236e-06
-9.23594129632e-05
5.60523272732e-06
-9.35701227629e-05
5.74730550992e-06
-9.47480071437e-05
5.84357016167e-06
-9.58796594422e-05
5.89392587377e-06
-9.69525181786e-05
5.89895472062e-06
-9.79549611729e-05
5.8596500248e-06
-9.88763055033e-05
5.77710118313e-06
-9.9706709396e-05
5.65214259081e-06
-0.000100436987572
5.48494956947e-06
-0.000101058300999
5.27456324887e-06
-0.000101561716091
5.01836337061e-06
-0.000101937657186
4.71149474832e-06
-0.000102175213542
4.34612747626e-06
-0.000102261202016
3.91046516525e-06
-0.000102178926346
3.38749418837e-06
-0.000101906461354
2.75312944808e-06
-0.000101414350558
1.97357414132e-06
-0.000100662518391
1.00170030251e-06
-9.95912274289e-05
-2.34216043705e-07
-9.81918025747e-05
-1.74116293767e-06
-9.63669031591e-05
-3.63310791568e-06
-9.39808778368e-05
-6.03190205685e-06
-9.08467500771e-05
-9.06059756579e-06
-8.67425017187e-05
-1.28403814252e-05
-8.14108343197e-05
-1.74627403305e-05
-7.45771518815e-05
-2.29453787137e-05
-6.59935339173e-05
-2.9156946481e-05
-5.5523645098e-05
-3.56845541053e-05
-4.32826592062e-05
-4.15956645709e-05
-2.9822145594e-05
-4.50210125349e-05
-1.62467937658e-05
-4.25158372352e-05
-3.56341101402e-06
-2.85456753166e-05
4.91319098748e-06
-5.05776170799e-06
2.74552601335e-05
-8.00461063064e-06
9.23209947655e-06
-9.09898880135e-06
2.31775336945e-08
-9.29433513431e-06
-2.56983787699e-06
-9.1425112865e-06
-2.87087661542e-06
-8.86456837265e-06
-2.56083483275e-06
-8.55083906338e-06
-2.15371287532e-06
-8.23993493116e-06
-1.78461307632e-06
-7.94844940452e-06
-1.4777805573e-06
-7.68288232191e-06
-1.22847715802e-06
-7.44486977222e-06
-1.02638676276e-06
-7.23369204066e-06
-8.6173788321e-07
-7.04755297629e-06
-7.26545256464e-07
-6.88424828928e-06
-6.14566395725e-07
-6.7415113422e-06
-5.20983876173e-07
-6.61718407332e-06
-4.42084192928e-07
-6.50929291227e-06
-3.74993521819e-07
-6.41607383306e-06
-3.17473938583e-07
-6.33597106063e-06
-2.67769490377e-07
-6.26762345129e-06
-2.24491370197e-07
-6.20984566603e-06
-1.86532139769e-07
-6.16160795067e-06
-1.53001507982e-07
-6.12201628264e-06
-1.23177661399e-07
-6.09029356421e-06
-9.64699417352e-08
-6.06576221278e-06
-7.23899641107e-08
-6.04782786901e-06
-5.05287325745e-08
-6.03595999363e-06
-3.05363000824e-08
-6.02966693122e-06
-1.21003784895e-08
-6.02859132142e-06
5.12981352991e-09
-6.03236899799e-06
2.11598063156e-08
-6.04081938584e-06
3.62189121648e-08
-6.05373178232e-06
5.03748604701e-08
-6.07091064393e-06
6.37439940295e-08
-6.09218231387e-06
7.64464929562e-08
-6.11739595342e-06
8.85931614116e-08
-6.14642339895e-06
1.00283817404e-07
-6.17915847654e-06
1.11607721857e-07
-6.21551595006e-06
1.22644569137e-07
-6.25543021777e-06
1.33465796682e-07
-6.29885408961e-06
1.44136035246e-07
-6.34575769598e-06
1.54714280015e-07
-6.39612748432e-06
1.65255083205e-07
-6.44996549428e-06
1.75809451893e-07
-6.50728857475e-06
1.8642559399e-07
-6.56812795132e-06
1.971496849e-07
-6.63252883279e-06
2.0802639639e-07
-6.70055024396e-06
2.19099551694e-07
-6.77226502279e-06
2.30412629321e-07
-6.84775977275e-06
2.42009187371e-07
-6.92713515114e-06
2.53933338626e-07
-7.01050616096e-06
2.66229996481e-07
-7.09800263772e-06
2.78945296321e-07
-7.18976986084e-06
2.9212691594e-07
-7.28596921276e-06
3.05824347486e-07
-7.38677904709e-06
3.20089398601e-07
-7.49239565922e-06
3.34976508421e-07
-7.60303441009e-06
3.50543351329e-07
-7.71893093784e-06
3.66851554985e-07
-7.84034253889e-06
3.83967117738e-07
-7.96754972602e-06
4.01961190658e-07
-8.10085804213e-06
4.20910707688e-07
-8.24060012721e-06
4.40898907577e-07
-8.38713811119e-06
4.62016193711e-07
-8.54086631247e-06
4.84360772752e-07
-8.70221415955e-06
5.08039450867e-07
-8.87164976755e-06
5.33168751877e-07
-9.04968395558e-06
5.59875957108e-07
-9.23687448027e-06
5.88300532297e-07
-9.43383104368e-06
6.18595843026e-07
-9.64122089981e-06
6.50931065811e-07
-9.85977521239e-06
6.85493494168e-07
-1.00902965298e-05
7.22490979798e-07
-1.03336670432e-05
7.62154696627e-07
-1.05908579516e-05
8.0474255101e-07
-1.08629406968e-05
8.50543111773e-07
-1.11511002342e-05
8.99880172866e-07
-1.14566505344e-05
9.5311831337e-07
-1.17810529096e-05
1.01066975235e-06
-1.21259378968e-05
1.07300267134e-06
-1.24931316246e-05
1.14065139898e-06
-1.28846876723e-05
1.21422922677e-06
-1.33029256273e-05
1.29444496968e-06
-1.37504784598e-05
1.3821247997e-06
-1.42303525567e-05
1.47824128098e-06
-1.47460054907e-05
1.58395241771e-06
-1.53014484938e-05
1.70065565878e-06
-1.59013840713e-05
1.83006484627e-06
-1.65513949404e-05
1.97432241005e-06
-1.72582096694e-05
2.13616515198e-06
-1.80300801378e-05
2.31916772731e-06
-1.88773107637e-05
2.52808565497e-06
-1.98129617506e-05
2.76928821972e-06
-2.08536664347e-05
3.0511696316e-06
-2.20202944961e-05
3.38419819231e-06
-2.33378070404e-05
3.77988144573e-06
-2.4833149918e-05
4.24751434872e-06
-2.65297671268e-05
4.78758506292e-06
-2.84379601748e-05
5.38189623728e-06
-3.05424174204e-05
5.98324362978e-06
-3.27911951911e-05
6.5107104078e-06
-3.50920439015e-05
6.85713973262e-06
-3.73200765301e-05
6.91062817225e-06
-3.93360011692e-05
6.58401377895e-06
-4.1009824578e-05
5.8412904632e-06
-4.22436658817e-05
4.71137028538e-06
-4.29887572183e-05
3.2856227618e-06
-4.32534445643e-05
1.70093087194e-06
-4.31001838361e-05
1.11572214297e-07
-4.26351915415e-05
-1.34161960978e-06
-4.19808464097e-05
-2.55131485521e-06
-4.12456852244e-05
-3.46815493944e-06
-4.05108787119e-05
-4.08909882971e-06
-3.98339711026e-05
-4.43834081451e-06
-3.92564487515e-05
-4.54837167237e-06
-3.88121241021e-05
-4.44823524747e-06
-3.85340071797e-05
-4.15812133712e-06
-3.84592554502e-05
-3.68840110848e-06
-3.86323961478e-05
-3.04124760857e-06
-3.91067887946e-05
-2.21360903719e-06
-3.99471158692e-05
-1.19698567201e-06
-4.12267553447e-05
2.01182889487e-08
-4.2899424909e-05
1.35055495775e-06
-4.47984937228e-05
2.66725478949e-06
-4.68498166187e-05
3.92920984205e-06
-4.90761952269e-05
5.13357943025e-06
-5.1481643883e-05
6.2399417621e-06
-5.40485023461e-05
7.20459006862e-06
-5.67440798681e-05
7.99385663757e-06
-5.95245868836e-05
8.58821591456e-06
-6.23373888364e-05
8.98196055222e-06
-6.51235030478e-05
9.1805857156e-06
-6.78215340233e-05
9.19701733866e-06
-7.03727968363e-05
9.047939141e-06
-7.27263972546e-05
8.75129383541e-06
-7.48430571647e-05
8.32525109314e-06
-7.66972895044e-05
7.78834100309e-06
-7.82779386584e-05
7.16032834269e-06
-7.95872166088e-05
6.46318543425e-06
-8.06385920202e-05
5.72135902444e-06
-8.14540216106e-05
4.96112901317e-06
-8.2061506339e-05
4.20965915744e-06
-8.24927910911e-05
3.4927234948e-06
-8.27805722543e-05
2.83189211046e-06
-8.29569908905e-05
2.24477875926e-06
-8.30529636011e-05
1.74506327229e-06
-8.3097148581e-05
1.34143779699e-06
-8.31149519435e-05
1.03750534505e-06
-8.31279187719e-05
8.32609078171e-07
-8.31535887275e-05
7.22985532786e-07
-8.3205543891e-05
7.02667650959e-07
-8.3294009943e-05
7.64797844123e-07
-8.34265131165e-05
9.02170602102e-07
-8.36084036292e-05
1.10714288481e-06
-8.38431810327e-05
1.37158620059e-06
-8.41325701489e-05
1.68682713745e-06
-8.44765579929e-05
2.04364086342e-06
-8.48734360755e-05
2.43232083646e-06
-8.53198491771e-05
2.84281945577e-06
-8.58108670043e-05
3.26493545386e-06
-8.63400983419e-05
3.68852543011e-06
-8.68998549961e-05
4.10372497883e-06
-8.74813602784e-05
4.50117323956e-06
-8.80749927201e-05
4.87223784173e-06
-8.86705569958e-05
5.20923088862e-06
-8.92575753607e-05
5.50559837248e-06
-8.98255902374e-05
5.75606410704e-06
-9.03644620755e-05
5.95671464585e-06
-9.08646485036e-05
6.10502081097e-06
-9.131744275e-05
6.19979682855e-06
-9.17151714295e-05
6.24108501781e-06
-9.20513419504e-05
6.22996421474e-06
-9.23207343846e-05
6.16828802433e-06
-9.25194301086e-05
6.05835011935e-06
-9.26447669252e-05
5.90249566251e-06
-9.26952241753e-05
5.70270016468e-06
-9.26702645946e-05
5.46012205113e-06
-9.25700938109e-05
5.174545225e-06
-9.23953079363e-05
4.84374005673e-06
-9.21465521738e-05
4.46290104644e-06
-9.18242009018e-05
4.02392861598e-06
-9.14277724913e-05
3.51417174101e-06
-9.0954979667e-05
2.91481269675e-06
-9.04005174994e-05
2.19875066311e-06
-8.97536753728e-05
1.32678498431e-06
-8.89930359191e-05
2.4108234357e-07
-8.81414820174e-05
-1.08577991839e-06
-8.71395114247e-05
-2.74317259294e-06
-8.5898095837e-05
-4.8745871459e-06
-8.43031013742e-05
-7.62698190238e-06
-8.22005243134e-05
-1.11632796571e-05
-7.93914887402e-05
-1.56495401101e-05
-7.56302794222e-05
-2.12240898292e-05
-7.06342490229e-05