/*--------------------------------*- C++ -*----------------------------------*\
  =========                 |
  \\      /  F ield         | OpenFOAM: The Open Source CFD Toolbox
   \\    /   O peration     | Website:  https://openfoam.org
    \\  /    A nd           | Version:  12
     \\/     M anipulation  |
\*---------------------------------------------------------------------------*/
FoamFile
{
    format      ascii;
    class       volScalarField;
    location    "10";
    object      rho;
}
// * * * * * * * * * * * * * * * * * * * * * * * * * * * * * * * * * * * * * //

dimensions      [1 -3 0 0 0 0 0];

internalField   nonuniform List<scalar> 
40000
(
1.168591795
1.18521290427
1.18882246874
1.18968111787
1.18990778093
1.18997338572
1.18999386649
1.19000066223
1.19000303409
1.19000390088
1.19000423369
1.19000436997
1.19000443131
1.19000446285
1.19000448184
1.19000449506
1.19000450528
1.1900045137
1.19000452088
1.19000452713
1.19000453262
1.19000453749
1.19000454182
1.1900045457
1.19000454918
1.19000455232
1.19000455516
1.19000455774
1.19000456008
1.19000456221
1.19000456417
1.19000456595
1.19000456759
1.1900045691
1.1900045705
1.19000457178
1.19000457298
1.19000457409
1.19000457512
1.19000457609
1.19000457699
1.19000457785
1.19000457865
1.19000457941
1.19000458013
1.19000458081
1.19000458147
1.1900045821
1.1900045827
1.19000458329
1.19000458386
1.19000458442
1.19000458496
1.1900045855
1.19000458603
1.19000458656
1.19000458709
1.19000458763
1.19000458817
1.19000458871
1.19000458927
1.19000458984
1.19000459042
1.19000459102
1.19000459165
1.1900045923
1.19000459297
1.19000459368
1.19000459442
1.19000459519
1.19000459601
1.19000459687
1.19000459778
1.19000459875
1.19000459977
1.19000460086
1.19000460202
1.19000460326
1.19000460457
1.19000460599
1.1900046075
1.19000460912
1.19000461086
1.19000461273
1.19000461475
1.19000461693
1.19000461929
1.19000462185
1.19000462466
1.19000462782
1.19000463162
1.19000463696
1.19000464655
1.19000466834
1.19000472437
1.19000487211
1.19000525182
1.19000618193
1.19000833101
1.19001298804
1.19002241697
1.19004020891
1.19007145856
1.1901225594
1.19020051154
1.1903118811
1.1904618502
1.19065406084
1.19089238043
1.19118581424
1.19153325196
1.19192380554
1.19234239923
1.19277251401
1.19319888808
1.19360926617
1.19399499098
1.1943507744
1.19467409416
1.19496452606
1.19522319645
1.19545241249
1.19565548044
1.19583694335
1.19600565619
1.19616994019
1.1963330524
1.1964992202
1.1966734331
1.19686083816
1.19706581935
1.19729115864
1.19753773403
1.19780489382
1.19809118593
1.19839487832
1.19871386404
1.19904492903
1.19938273702
1.19971911428
1.20004321958
1.20034288718
1.20060688364
1.2008272981
1.20100113884
1.20113056051
1.20122177042
1.20128317691
1.2013235011
1.20135038904
1.20136972482
1.20138555389
1.20140038243
1.20141561595
1.20143197305
1.20144979636
1.20146925096
1.20149043166
1.20151340839
1.2015382354
1.20156494287
1.20159352322
1.20162391986
1.20165602298
1.20168967389
1.20172467694
1.20176081634
1.20179787433
1.20183564746
1.20187395868
1.20191266451
1.20195165753
1.20199086507
1.20203024552
1.20206978345
1.2021094845
1.20214937069
1.20218947665
1.2022298467
1.2022705331
1.20231159513
1.20235309917
1.20239511971
1.20243774139
1.2024810626
1.20252520094
1.20257029977
1.20261653431
1.20266397275
1.20272755751
1.20281576295
1.20293611447
1.20309773614
1.2033120621
1.20359361945
1.20396155446
1.20444393466
1.20510252949
1.20629806157
1.20786684067
1.16752165745
1.18515959804
1.1889123089
1.18973479008
1.18993127798
1.18998244698
1.18999693824
1.19000138604
1.1900028602
1.19000338777
1.19000359354
1.19000368303
1.19000372787
1.19000375428
1.19000377233
1.1900037861
1.19000379733
1.19000380685
1.19000381508
1.1900038223
1.19000382868
1.19000383436
1.19000383942
1.19000384397
1.19000384807
1.19000385178
1.19000385514
1.19000385821
1.19000386101
1.19000386357
1.19000386593
1.19000386809
1.19000387008
1.19000387193
1.19000387364
1.19000387524
1.19000387673
1.19000387812
1.19000387943
1.19000388067
1.19000388184
1.19000388295
1.19000388401
1.19000388502
1.19000388599
1.19000388693
1.19000388783
1.19000388871
1.19000388957
1.19000389041
1.19000389123
1.19000389205
1.19000389286
1.19000389367
1.19000389448
1.19000389529
1.19000389612
1.19000389695
1.1900038978
1.19000389867
1.19000389955
1.19000390047
1.19000390142
1.19000390239
1.19000390341
1.19000390447
1.19000390558
1.19000390674
1.19000390796
1.19000390924
1.19000391059
1.19000391202
1.19000391353
1.19000391514
1.19000391684
1.19000391865
1.19000392058
1.19000392265
1.19000392485
1.19000392722
1.19000392976
1.19000393249
1.19000393543
1.1900039386
1.19000394204
1.19000394577
1.19000394984
1.19000395437
1.19000395963
1.19000396646
1.19000397761
1.19000400158
1.19000406356
1.19000423406
1.19000469803
1.19000590779
1.19000888749
1.1900157673
1.19003057669
1.19006016238
1.19011481306
1.19020793539
1.19035426987
1.19056686213
1.19085393134
1.19121710051
1.19165186369
1.19215030881
1.19270595611
1.1933101016
1.19392353566
1.19451127757
1.19504968408
1.19552630688
1.19593737585
1.19628468282
1.19657293776
1.19680798018
1.19699580097
1.19714217483
1.1972527116
1.19733322224
1.19739055162
1.19743557141
1.19748466258
1.19754276031
1.19762323782
1.19774006722
1.19790402732
1.1981184164
1.19837682669
1.198664152
1.19896133894
1.19925159539
1.19952428401
1.19977477234
1.20000168977
1.20020425134
1.20038118007
1.20053110079
1.20065348614
1.20074935489
1.20082139622
1.20087358183
1.20091050375
1.2009366901
1.20095608108
1.20097174639
1.20098583209
1.20099966851
1.20101395598
1.20102896018
1.2010446757
1.2010609582
1.20107760468
1.20109438978
1.20111109059
1.20112749668
1.20114341094
1.2011586464
1.20117302265
1.20118636353
1.20119849727
1.20120925898
1.20121849492
1.20122606783
1.20123186221
1.20123578881
1.20123778741
1.20123782762
1.20123590765
1.20123205161
1.20122630601
1.2012187361
1.20120942298
1.20119846195
1.20118596255
1.20117205111
1.20115687635
1.20114061912
1.20112350754
1.20110583977
1.20108801716
1.20107059351
1.20105435245
1.20104042525
1.20103042439
1.20103256337
1.20107127941
1.20114640012
1.2012664841
1.20144475097
1.20169806141
1.20204755576
1.20251950196
1.20314628136
1.20396709101
1.20502835141
1.20640495832
1.2083096872
1.16628661735
1.18472721113
1.18883442881
1.18972961216
1.18993517578
1.18998503272
1.18999784693
1.19000136738
1.19000241748
1.1900027668
1.19000290184
1.19000296524
1.1900030019
1.19000302708
1.19000304644
1.19000306233
1.19000307581
1.19000308749
1.19000309772
1.19000310676
1.19000311478
1.19000312195
1.19000312839
1.19000313419
1.19000313943
1.1900031442
1.19000314854
1.19000315252
1.19000315618
1.19000315954
1.19000316263
1.1900031655
1.19000316816
1.19000317063
1.19000317294
1.19000317511
1.19000317715
1.19000317907
1.1900031809
1.19000318263
1.19000318428
1.19000318587
1.19000318739
1.19000318886
1.19000319029
1.19000319167
1.19000319302
1.19000319435
1.19000319565
1.19000319694
1.19000319822
1.1900031995
1.19000320077
1.19000320205
1.19000320334
1.19000320464
1.19000320596
1.19000320731
1.19000320869
1.1900032101
1.19000321155
1.19000321305
1.1900032146
1.19000321621
1.19000321789
1.19000321963
1.19000322146
1.19000322337
1.19000322538
1.19000322749
1.19000322971
1.19000323206
1.19000323455
1.19000323719
1.19000323999
1.19000324297
1.19000324614
1.19000324953
1.19000325316
1.19000325705
1.19000326122
1.19000326571
1.19000327056
1.1900032758
1.19000328148
1.19000328769
1.19000329459
1.19000330265
1.1900033133
1.19000333124
1.19000337122
1.19000347743
1.19000377461
1.19000459241
1.19000674064
1.19001205532
1.19002434228
1.19005073233
1.19010313193
1.19019895285
1.19036001212
1.19060898895
1.19096417506
1.19143448531
1.19201665338
1.19269530846
1.1934453853
1.1942358628
1.19503386996
1.19578792859
1.19645686579
1.19702423262
1.19748883593
1.19785887355
1.19814672752
1.19836540801
1.19852662155
1.19864004972
1.19871341957
1.19875310056
1.19876517542
1.19875719477
1.19874140226
1.19872634011
1.19870930399
1.19871302429
1.19875810773
1.19885391544
1.19899744145
1.19917552195
1.19936952963
1.1995608507
1.19973517641
1.19988427378
1.20000530831
1.20009894025
1.2001675189
1.20021404129
1.20024184029
1.20025458814
1.20025624185
1.20025079938
1.20024194362
1.20023272026
1.20022535005
1.20022119951
1.20022087792
1.20022440357
1.20023138453
1.20024117818
1.2002530139
1.20026607699
1.20027956027
1.20029269953
1.20030479238
1.20031520242
1.20032336045
1.20032876393
1.20033097463
1.20032961528
1.20032436634
1.2003149637
1.20030119765
1.20028291284
1.20026000885
1.2002324409
1.20020022015
1.20016341323
1.20012214078
1.20007657488
1.20002693564
1.19997348753
1.19991653622
1.1998564269
1.19979354506
1.19972832042
1.19966123586
1.19959284239
1.19952378225
1.19945482192
1.19938689882
1.19932118585
1.19925917943
1.19920282045
1.19915466248
1.19911810416
1.19910190667
1.19912923623
1.19919336896
1.19930445299
1.19947655911
1.19972795829
1.20008182423
1.20056699925
1.20121869859
1.20207878826
1.20319433951
1.20461057788
1.20635100903
1.20864589128
1.16514531985
1.18422207523
1.18869100748
1.18969498074
1.18992768121
1.18998338467
1.18999718782
1.19000075996
1.19000174663
1.19000205183
1.1900021667
1.19000222345
1.19000225966
1.19000228692
1.19000230921
1.19000232816
1.19000234459
1.19000235901
1.19000237174
1.19000238306
1.19000239318
1.19000240225
1.19000241044
1.19000241785
1.19000242458
1.19000243073
1.19000243635
1.19000244152
1.19000244629
1.1900024507
1.19000245478
1.19000245858
1.19000246211
1.19000246543
1.19000246854
1.19000247147
1.19000247425
1.19000247688
1.19000247939
1.19000248179
1.19000248409
1.1900024863
1.19000248845
1.19000249053
1.19000249255
1.19000249453
1.19000249647
1.19000249839
1.19000250028
1.19000250216
1.19000250403
1.1900025059
1.19000250777
1.19000250966
1.19000251157
1.1900025135
1.19000251547
1.19000251748
1.19000251953
1.19000252164
1.19000252381
1.19000252605
1.19000252837
1.19000253077
1.19000253327
1.19000253588
1.1900025386
1.19000254145
1.19000254445
1.19000254759
1.1900025509
1.19000255439
1.19000255809
1.190002562
1.19000256615
1.19000257057
1.19000257527
1.19000258028
1.19000258564
1.19000259139
1.19000259756
1.19000260419
1.19000261135
1.1900026191
1.19000262754
1.19000263683
1.19000264746
1.19000266084
1.19000268163
1.1900027246
1.19000283472
1.19000314106
1.19000399089
1.19000625369
1.1900119402
1.19002530749
1.19005451587
1.19011353683
1.19022338117
1.19041121163
1.19070626123
1.19113302104
1.19170395866
1.19241451372
1.19324188406
1.19414738048
1.19508118412
1.19598832092
1.19681480199
1.19751329625
1.19807463272
1.19850803097
1.19883190219
1.19906728048
1.19923365992
1.19934703849
1.19941950545
1.19945972851
1.19947390291
1.19946691054
1.19944350738
1.1994091854
1.19936559684
1.19932089824
1.19929340216
1.19929328657
1.19932405609
1.19938241659
1.19945896406
1.19954070953
1.19961463582
1.1996707526
1.19970356556
1.19971186793
1.19969754514
1.19966423597
1.19961635115
1.19955852251
1.19949531575
1.19943102055
1.19936943133
1.19931363308
1.19926585222
1.19922741456
1.19919879932
1.19917975935
1.19916948035
1.19916675019
1.19917011488
1.19917800768
1.19918884799
1.1992011092
1.19921336049
1.19922429221
1.19923273018
1.19923763971
1.19923812443
1.19923342254
1.19922290133
1.19920605093
1.19918247809
1.19915190092
1.19911414471
1.19906913862
1.19901691286
1.19895759593
1.19889141156
1.19881867496
1.19873978845
1.19865523599
1.19856557729
1.19847144204
1.19837352516
1.19827258439
1.19816944111
1.19806498571
1.19796018881
1.19785612052
1.19775397946
1.1976551333
1.1975611743
1.19747399548
1.19739589327
1.19732970712
1.19727900941
1.19724836265
1.19725902015
1.19730290991
1.1973889622
1.19753033717
1.19774444599
1.1980537712
1.19848667725
1.19907806768
1.19986971616
1.20090978491
1.20225047286
1.20394306107
1.2060406397
1.20868235312
1.1641092311
1.18370822738
1.1885136647
1.18964659669
1.18991474701
1.18997966751
1.18999575399
1.18999986066
1.19000096284
1.19000129054
1.19000141024
1.19000146974
1.19000150907
1.19000153976
1.19000156552
1.19000158781
1.19000160738
1.19000162469
1.19000164009
1.19000165387
1.19000166624
1.19000167741
1.19000168752
1.19000169672
1.19000170512
1.19000171281
1.19000171988
1.1900017264
1.19000173243
1.19000173803
1.19000174324
1.19000174811
1.19000175266
1.19000175694
1.19000176098
1.19000176481
1.19000176844
1.1900017719
1.19000177521
1.19000177838
1.19000178144
1.1900017844
1.19000178726
1.19000179005
1.19000179278
1.19000179545
1.19000179809
1.19000180068
1.19000180326
1.19000180582
1.19000180837
1.19000181093
1.1900018135
1.19000181609
1.19000181871
1.19000182137
1.19000182408
1.19000182684
1.19000182966
1.19000183256
1.19000183555
1.19000183863
1.19000184182
1.19000184512
1.19000184855
1.19000185213
1.19000185586
1.19000185976
1.19000186386
1.19000186816
1.19000187268
1.19000187745
1.19000188248
1.19000188781
1.19000189347
1.19000189947
1.19000190586
1.19000191267
1.19000191995
1.19000192775
1.19000193612
1.19000194512
1.19000195482
1.19000196534
1.19000197682
1.1900019896
1.19000200464
1.19000202501
1.19000206055
1.19000214191
1.19000235964
1.19000296538
1.19000461193
1.19000886963
1.1900192126
1.19004264075
1.19009184523
1.19018722377
1.19035728626
1.19063574087
1.19105461201
1.19163494713
1.19237845284
1.1932632171
1.19424479633
1.19526204563
1.19624624008
1.19713195433
1.19786799593
1.19843955274
1.19886220307
1.19916175413
1.19936644069
1.19950163789
1.1995874619
1.19963839029
1.19966399363
1.19967011401
1.19966009558
1.19963584486
1.19959895063
1.19955416928
1.19950879185
1.19946896085
1.1994387456
1.19941958689
1.1994094621
1.19940300122
1.19939263897
1.19937053067
1.19933051323
1.1992693546
1.19918697209
1.19908583871
1.1989700636
1.19884455446
1.19871443075
1.1985846605
1.19845982114
1.19834390869
1.19824017169
1.19815097464
1.19807771917
1.19802085574
1.19797995075
1.19795378862
1.19794053853
1.19793795833
1.19794359815
1.1979549745
1.19796970295
1.19798557621
1.19800059745
1.19801299639
1.1980212324
1.19802398904
1.19802016406
1.19800885752
1.19798935937
1.19796113762
1.19792382755
1.19787722259
1.19782126674
1.19775604806
1.19768179257
1.19759885805
1.19750772693
1.19740899841
1.19730337919
1.19719167317
1.19707477036
1.19695363592
1.19682930039
1.19670285264
1.19657543715
1.19644825697
1.19632258375
1.19619977764
1.19608132006
1.19596885885
1.1958642676
1.19576973035
1.19568786282
1.19562188074
1.19557584954
1.19556123455
1.19557969449
1.19563256644
1.19573097715
1.19589029788
1.19613085592
1.19647889905
1.19696739266
1.19763647538
1.19853348349
1.19971202003
1.20122902458
1.20313865491
1.20548541685
1.20832119933
1.16317528836
1.18321791589
1.18833994091
1.18959359458
1.18989918398
1.18997486179
1.18999391239
1.18999881383
1.19000012577
1.1900005094
1.1900006456
1.19000071178
1.19000075541
1.19000078977
1.19000081894
1.19000084444
1.19000086702
1.19000088714
1.19000090516
1.19000092138
1.19000093602
1.1900009493
1.19000096139
1.19000097242
1.19000098254
1.19000099184
1.19000100042
1.19000100836
1.19000101574
1.1900010226
1.19000102901
1.19000103502
1.19000104066
1.19000104599
1.19000105103
1.19000105581
1.19000106037
1.19000106473
1.19000106891
1.19000107293
1.19000107681
1.19000108057
1.19000108423
1.19000108779
1.19000109128
1.19000109471
1.19000109809
1.19000110143
1.19000110475
1.19000110805
1.19000111135
1.19000111466
1.19000111798
1.19000112133
1.19000112472
1.19000112816
1.19000113166
1.19000113524
1.19000113889
1.19000114264
1.1900011465
1.19000115048
1.1900011546
1.19000115886
1.19000116329
1.1900011679
1.1900011727
1.19000117773
1.19000118299
1.19000118851
1.19000119432
1.19000120043
1.19000120689
1.19000121371
1.19000122094
1.19000122862
1.19000123679
1.19000124549
1.19000125478
1.19000126472
1.19000127539
1.19000128686
1.19000129924
1.19000131264
1.1900013273
1.19000134374
1.19000136347
1.19000139135
1.19000144284
1.19000156519
1.1900018954
1.19000280588
1.19000524031
1.19001141095
1.19002607616
1.19005853157
1.19012506589
1.19025087719
1.19046963806
1.19081887616
1.19133087562
1.19202145425
1.19288085319
1.19387051542
1.19492720974
1.19597358214
1.19693275026
1.19774354366
1.19837210269
1.19882638399
1.19913745691
1.1993396088
1.19946431875
1.19953674927
1.19957491898
1.19959044004
1.19958990533
1.19957636067
1.19955056526
1.19951434018
1.19947340725
1.19942828023
1.19937958528
1.19932821092
1.19927416314
1.19921598373
1.19915061338
1.19907383535
1.19898122587
1.19886930245
1.19873644726
1.19858329514
1.19841255057
1.19822844067
1.19803608004
1.19784093599
1.19764845066
1.19746378704
1.19729163921
1.19713606564
1.19700034244
1.19688682036
1.19679678759
1.19673045121
1.19668689365
1.19666388824
1.19665823306
1.19666616928
1.19668379286
1.1967074083
1.19673377803
1.19676013032
1.19678402992
1.19680338678
1.19681645229
1.19682180058
1.19681830107
1.19680508883
1.1967815372
1.19674723433
1.19670196429
1.19664569224
1.19657855252
1.19650083866
1.19641299393
1.19631560136
1.19620937262
1.19609513513
1.19597381761
1.19584643418
1.1957140681
1.19557785637
1.19543897722
1.19529864268
1.19515809879
1.19501863643
1.19488161301
1.19474848738
1.19462087381
1.19450060747
1.19438980743
1.19429095867
1.19420705251
1.19414175109
1.19409956443
1.19409104498
1.19410844165
1.19415985304
1.194258004
1.19442028594
1.19466981489
1.19503648932
1.19555768643
1.19627845789
1.19725172096
1.19853771029
1.20020121136
1.20230402291
1.20489379142
1.20803818406
1.1623331489
1.1827539842
1.18816901001
1.1895383737
1.18988206794
1.18996936571
1.18999181019
1.18999767681
1.1899992596
1.1899997198
1.18999987903
1.18999995368
1.19000000184
1.19000003963
1.19000007188
1.19000010028
1.1900001256
1.19000014832
1.1900001688
1.19000018732
1.19000020414
1.19000021947
1.19000023347
1.19000024631
1.19000025813
1.19000026903
1.19000027913
1.19000028851
1.19000029724
1.19000030539
1.19000031302
1.1900003202
1.19000032696
1.19000033336
1.19000033943
1.19000034522
1.19000035074
1.19000035602
1.19000036111
1.19000036601
1.19000037075
1.19000037535
1.19000037983
1.19000038421
1.1900003885
1.19000039271
1.19000039688
1.190000401
1.19000040509
1.19000040916
1.19000041324
1.19000041732
1.19000042143
1.19000042557
1.19000042977
1.19000043402
1.19000043835
1.19000044276
1.19000044728
1.19000045192
1.19000045668
1.19000046159
1.19000046666
1.19000047192
1.19000047737
1.19000048304
1.19000048895
1.19000049513
1.19000050159
1.19000050837
1.19000051548
1.19000052298
1.19000053088
1.19000053923
1.19000054808
1.19000055746
1.19000056743
1.19000057805
1.19000058939
1.19000060151
1.1900006145
1.19000062847
1.19000064354
1.19000065985
1.1900006777
1.19000069774
1.19000072191
1.19000075638
1.19000082059
1.19000097341
1.19000138353
1.19000250411
1.19000546865
1.19001289817
1.19003034861
1.19006850881
1.19014580944
1.19029026958
1.19053856196
1.19093032708
1.19149753021
1.19225167619
1.19317395849
1.19421304877
1.19529244678
1.19632589595
1.19723657563
1.1979738922
1.19852157794
1.19889603529
1.19913458579
1.19927544666
1.19935047827
1.19938342013
1.1993901806
1.19938021845
1.19935824268
1.19932577406
1.19928723104
1.19924522464
1.19919633618
1.19913900532
1.19907225958
1.19899501341
1.19890571943
1.19880224424
1.19868202954
1.19854254591
1.19838192951
1.19819959406
1.19799660435
1.19777570027
1.19754101127
1.19729760448
1.19705101819
1.19680687249
1.19657057958
1.19634713561
1.19614096515
1.19595579124
1.19579456288
1.19565937431
1.19555109475
1.19547230841
1.19542710058
1.19541258011
1.19542339756
1.19545288027
1.19549364646
1.19553820466
1.19558289116
1.19562612618
1.19566540795
1.19569835311
1.19572293415
1.19573755357
1.19574103547
1.19573258265
1.19571172257
1.19567825579
1.19563221249
1.19557381863
1.19550347029
1.19542171396
1.19532923008
1.1952268177
1.19511537865
1.19499590037
1.19486943705
1.19473708945
1.19459998479
1.1944592586
1.19431604145
1.19417145335
1.19402660949
1.19388264386
1.19374075121
1.19360224371
1.19346864248
1.19334180118
1.19322398739
1.19311792944
1.19302698221
1.19295525659
1.19291052244
1.19289092504
1.19289366598
1.19292818903
1.19300874539
1.19315491302
1.19339283644
1.19375628037
1.19428702027
1.19503449394
1.19605715098
1.19742350672
1.19921054655
1.20149615297
1.20434762851
1.20784928283
1.16157161259
1.18231608206
1.1880019575
1.18948209249
1.18986391472
1.1899633681
1.18998951308
1.18999647329
1.1899983739
1.1899989264
1.1899991134
1.18999919759
1.18999925022
1.18999929107
1.18999932598
1.18999935688
1.18999938461
1.18999940965
1.18999943235
1.189999453
1.18999947184
1.18999948908
1.1899995049
1.18999951947
1.18999953292
1.18999954538
1.18999955695
1.18999956773
1.18999957779
1.18999958722
1.18999959607
1.18999960441
1.18999961229
1.18999961977
1.18999962688
1.18999963366
1.18999964015
1.18999964638
1.18999965237
1.18999965816
1.18999966378
1.18999966923
1.18999967455
1.18999967974
1.18999968485
1.18999968987
1.18999969483
1.18999969974
1.18999970462
1.18999970948
1.18999971434
1.18999971922
1.18999972413
1.18999972908
1.18999973408
1.18999973916
1.18999974433
1.1899997496
1.18999975499
1.18999976052
1.1899997662
1.18999977205
1.18999977809
1.18999978434
1.18999979083
1.18999979757
1.1899998046
1.18999981193
1.18999981959
1.18999982763
1.18999983606
1.18999984493
1.18999985429
1.18999986417
1.18999987462
1.1899998857
1.18999989746
1.18999990999
1.18999992335
1.18999993763
1.18999995293
1.18999996937
1.18999998707
1.19000000624
1.19000002718
1.19000005061
1.19000007863
1.19000011784
1.19000018893
1.19000035425
1.19000079163
1.19000197672
1.19000509407
1.19001287131
1.1900310689
1.19007073659
1.19015089255
1.19030042948
1.19055715059
1.19096178761
1.19154658643
1.19232133721
1.19326259108
1.19431187453
1.19538548472
1.19639360406
1.19726218187
1.19794913334
1.19844858317
1.19878296165
1.19898672121
1.19909526273
1.19914121193
1.19914792045
1.19913058062
1.19909798105
1.19905632112
1.19901154972
1.19896236214
1.19890540375
1.19883850897
1.1987597642
1.1986673387
1.19855937944
1.19843398934
1.19828932434
1.19812383706
1.19793664215
1.1977279118
1.19749917523
1.19725341679
1.19699493708
1.19672902089
1.1964614995
1.19619829218
1.19594497968
1.19570643394
1.19548651901
1.19528788613
1.19511183625
1.19495949622
1.19483379309
1.19473486239
1.19465919206
1.19460022135
1.19455749275
1.19453226002
1.19452577729
1.19453858981
1.1945700793
1.19461328565
1.19465929675
1.19470535397
1.19474814699
1.19478454136
1.19481188869
1.19482814268
1.19483187371
1.19482221743
1.1947987953
1.19476162684
1.1947110473
1.19464763744
1.19457216679
1.19448554844
1.19438880271
1.19428302653
1.19416936606
1.19404899059
1.19392306676
1.19379273334
1.19365907752
1.19352311462
1.19338577357
1.19324788833
1.19311020637
1.19297342591
1.19283822646
1.19270534338
1.19257591189
1.19245161407
1.19233449651
1.19222794074
1.19214105168
1.19207727106
1.19202698238
1.19199360406
1.19198771159
1.19202548441
1.19212955923
1.19233010108
1.1926654193
1.19318172763
1.19393125546
1.19497691337
1.19639655079
1.19828291309
1.20073568933
1.20384786234
1.20771718618
1.16087974759
1.18190229701
1.18783894473
1.18942501529
1.18984496088
1.18995697324
1.18998705744
1.18999521512
1.18999747285
1.18999813112
1.18999834999
1.18999844463
1.18999850161
1.18999854513
1.18999858226
1.18999861527
1.18999864506
1.18999867212
1.18999869678
1.18999871933
1.18999874
1.189998759
1.18999877651
1.18999879269
1.18999880768
1.18999882161
1.18999883459
1.18999884672
1.18999885806
1.18999886872
1.18999887875
1.18999888823
1.18999889721
1.18999890575
1.18999891388
1.18999892164
1.18999892909
1.18999893625
1.18999894315
1.18999894983
1.18999895631
1.18999896261
1.18999896876
1.18999897478
1.18999898069
1.18999898651
1.18999899227
1.18999899797
1.18999900364
1.18999900929
1.18999901494
1.18999902061
1.18999902632
1.18999903207
1.18999903789
1.18999904379
1.1899990498
1.18999905592
1.18999906218
1.1899990686
1.18999907519
1.18999908198
1.18999908898
1.18999909623
1.18999910374
1.18999911155
1.18999911967
1.18999912815
1.18999913701
1.18999914628
1.18999915602
1.18999916625
1.18999917703
1.1899991884
1.18999920043
1.18999921318
1.1899992267
1.18999924109
1.18999925643
1.18999927281
1.18999929035
1.18999930917
1.18999932943
1.18999935133
1.18999937519
1.18999940173
1.18999943293
1.18999947497
1.18999954712
1.18999970745
1.19000012161
1.19000123336
1.19000415033
1.19001143146
1.19002850621
1.19006585845
1.19014169888
1.19028403968
1.19053013554
1.19092098578
1.1914900438
1.19224861249
1.19317391318
1.19420666414
1.19526165963
1.19624866112
1.19709531051
1.19776232441
1.1982455301
1.19856675325
1.19876051369
1.19886119699
1.1988965019
1.19888935166
1.19885688969
1.19881099891
1.19875750926
1.1986967707
1.19862819699
1.19855022338
1.19846086733
1.19835802878
1.19823966552
1.19810392297
1.19794927799
1.19777473531
1.19758008464
1.19736618524
1.19713520899
1.19689076054
1.19663781253
1.19638243627
1.19613134986
1.1958913318
1.19566855548
1.19546790609
1.19529235759
1.19514250308
1.19501639047
1.19490622132
1.19480247142
1.19469683195
1.19458805171
1.19447804005
1.19436986146
1.19426721751
1.19417394446
1.19409368428
1.19402979716
1.19398545862
1.19396393927
1.1939654787
1.19398048537
1.19400196904
1.19402639326
1.19404981544
1.19406868607
1.19408004322
1.19408159811
1.19407175977
1.19404959625
1.19401475414
1.19396736067
1.19390792288
1.19383723365
1.1937562892
1.19366621954
1.19356823078
1.19346355719
1.19335342048
1.19323899487
1.19312137616
1.19300155218
1.19288037089
1.19275850122
1.19263637312
1.19251432367
1.19239247771
1.19226955114
1.19214749974
1.19202871871
1.19191581448
1.19181166788
1.19171496318
1.19162313559
1.19153341146
1.19144871726
1.19137964136
1.19134557236
1.19137547997
1.19150718632
1.19178602974
1.19226331343
1.19299084001
1.19403348473
1.1954788821
1.19743834837
1.2000372434
1.20339656778
1.20762049124
1.16024779165
1.18151013974
1.1876793535
1.1893661681
1.18982530816
1.18995025983
1.1899844706
1.18999391014
1.18999655859
1.18999733469
1.18999758926
1.18999769527
1.18999775655
1.1899978024
1.18999784135
1.18999787608
1.18999790758
1.18999793635
1.18999796271
1.18999798692
1.18999800922
1.18999802981
1.18999804885
1.18999806651
1.18999808293
1.18999809824
1.18999811254
1.18999812593
1.1899981385
1.18999815033
1.1899981615
1.18999817208
1.18999818212
1.18999819167
1.1899982008
1.18999820953
1.18999821791
1.18999822598
1.18999823377
1.18999824131
1.18999824864
1.18999825578
1.18999826275
1.18999826958
1.18999827629
1.1899982829
1.18999828944
1.18999829593
1.18999830237
1.1899983088
1.18999831524
1.18999832169
1.18999832818
1.18999833473
1.18999834136
1.18999834807
1.18999835491
1.18999836187
1.18999836899
1.18999837628
1.18999838377
1.18999839148
1.18999839944
1.18999840766
1.18999841618
1.18999842503
1.18999843423
1.18999844383
1.18999845385
1.18999846434
1.18999847534
1.1899984869
1.18999849907
1.1899985119
1.18999852546
1.18999853981
1.18999855504
1.18999857122
1.18999858845
1.18999860685
1.18999862653
1.18999864763
1.18999867031
1.18999869479
1.18999872139
1.18999875074
1.18999878456
1.18999882803
1.18999889726
1.18999904084
1.189999398
1.1900003439
1.19000282188
1.1900090309
1.19002368847
1.19005602998
1.19012237906
1.19024840961
1.19046927014
1.19082522078
1.19135140391
1.19206340382
1.19294419035
1.19393991337
1.19496920712
1.19594377482
1.19679133236
1.19747056895
1.19797308471
1.19831503184
1.19852528011
1.19863558288
1.1986747069
1.19866593997
1.19862644639
1.1985676968
1.19849637282
1.19841547502
1.19832560703
1.19822592834
1.19811485736
1.19799057646
1.19785138997
1.19769599996
1.19752375391
1.19733489341
1.19713080185
1.19691421559
1.19668933767
1.19646178403
1.19623830295
1.19602623532
1.19583271866
1.1956636828
1.19552274592
1.1954102049
1.19532243705
1.19525035892
1.19517355979
1.19508076584
1.19496926717
1.1948402428
1.19469738197
1.1945456865
1.19439051976
1.19423700017
1.19408965368
1.19395226026
1.19382785833
1.19371887459
1.19362737925
1.1935555213
1.19350653343
1.19347940389
1.19346579853
1.19345959764
1.19345775431
1.19345681655
1.19345359759
1.19344540088
1.19343010847
1.19340620532
1.19337276638
1.19332939827
1.19327616081
1.1932134761
1.19314203873
1.1930627322
1.1929765555
1.192884559
1.19278778815
1.19268723433
1.19258378425
1.19247801564
1.19237016498
1.19225830878
1.19214367742
1.19202948349
1.1919202431
1.1918166435
1.19171808746
1.19162412818
1.19153418463
1.19144675961
1.19135876241
1.19126591689
1.19116531988
1.19105817758
1.19095829115
1.19090019274
1.19093633164
1.19113109875
1.19154569328
1.19222834279
1.19324268904
1.19468639871
1.19669149485
1.19941173536
1.20299705352
1.20754755165
1.15966784338
1.18113828301
1.18752498169
1.18930942471
1.18980558799
1.18994335185
1.18998178059
1.18999256476
1.18999563242
1.1899965373
1.18999683126
1.1899969496
1.1899970152
1.1899970631
1.18999710352
1.18999713962
1.18999717251
1.18999720269
1.18999723049
1.18999725614
1.18999727987
1.18999730186
1.18999732228
1.18999734128
1.18999735901
1.18999737558
1.18999739111
1.18999740569
1.1899974194
1.18999743235
1.1899974446
1.18999745622
1.18999746727
1.18999747781
1.18999748788
1.18999749754
1.18999750683
1.18999751578
1.18999752443
1.18999753282
1.18999754097
1.18999754892
1.18999755669
1.18999756431
1.18999757181
1.1899975792
1.1899975865
1.18999759375
1.18999760097
1.18999760816
1.18999761536
1.18999762258
1.18999762985
1.18999763718
1.18999764459
1.18999765211
1.18999765975
1.18999766754
1.1899976755
1.18999768365
1.18999769202
1.18999770063
1.18999770951
1.18999771869
1.18999772819
1.18999773805
1.1899977483
1.18999775899
1.18999777014
1.18999778181
1.18999779403
1.18999780687
1.18999782038
1.18999783461
1.18999784963
1.18999786553
1.18999788238
1.18999790027
1.18999791931
1.18999793961
1.18999796131
1.18999798455
1.18999800951
1.18999803639
1.18999806551
1.18999809741
1.18999813346
1.18999817764
1.18999824224
1.18999836437
1.18999865111
1.18999939362
1.19000133218
1.19000621536
1.19001785389
1.19004385096
1.19009796128
1.19020245629
1.19038899256
1.19069576714
1.19115915053
1.19180038677
1.19261188427
1.19355049386
1.19454362616
1.19550746723
1.19636908209
1.19708197878
1.19762971699
1.19801973038