/*--------------------------------*- C++ -*----------------------------------*\
  =========                 |
  \\      /  F ield         | OpenFOAM: The Open Source CFD Toolbox
   \\    /   O peration     | Website:  https://openfoam.org
    \\  /    A nd           | Version:  12
     \\/     M anipulation  |
\*---------------------------------------------------------------------------*/
FoamFile
{
    format      ascii;
    class       volScalarField;
    location    "10";
    object      T;
}
// * * * * * * * * * * * * * * * * * * * * * * * * * * * * * * * * * * * * * //

dimensions      [0 0 0 1 0 0 0];

internalField   nonuniform List<scalar> 
40000
(
298.485997832
294.300110614
293.406541895
293.194776842
293.13892696
293.122765935
293.117721125
293.116047268
293.115463084
293.115249613
293.115167666
293.11513412
293.115119032
293.115111282
293.115106623
293.115103384
293.115100882
293.115098824
293.115097069
293.115095545
293.115094206
293.115093021
293.115091968
293.115091027
293.115090184
293.115089426
293.115088741
293.115088122
293.115087561
293.115087051
293.115086587
293.115086164
293.115085777
293.115085424
293.115085099
293.115084802
293.115084528
293.115084275
293.115084042
293.115083827
293.115083627
293.115083441
293.115083269
293.115083107
293.115082957
293.115082816
293.115082683
293.115082559
293.115082441
293.115082329
293.115082222
293.11508212
293.115082023
293.115081928
293.115081837
293.115081747
293.115081659
293.115081573
293.115081487
293.115081401
293.115081314
293.115081227
293.115081138
293.115081047
293.115080953
293.115080856
293.115080755
293.11508065
293.115080539
293.115080423
293.1150803
293.115080169
293.11508003
293.115079882
293.115079724
293.115079555
293.115079373
293.115079177
293.115078967
293.115078739
293.115078493
293.115078227
293.115077939
293.115077625
293.115077283
293.115076911
293.115076504
293.115076056
293.115075557
293.115074983
293.115074264
293.115073179
293.115071061
293.115065952
293.115052425
293.115016326
293.11492311
293.114694344
293.114165349
293.113018645
293.110696614
293.106314821
293.098618684
293.086034216
293.066839001
293.039419123
293.002503729
292.955203887
292.896578467
292.824427301
292.739043157
292.643122438
292.540384678
292.434894254
292.330396259
292.229889074
292.135482731
292.048458563
291.969419877
291.898457395
291.835284374
291.779327626
291.729772182
291.685503401
291.644357179
291.604302312
291.564544096
291.524052277
291.481612118
291.435971987
291.386067748
291.331226851
291.271241332
291.206275998
291.136690393
291.062911843
290.985458205
290.905115149
290.82318141
290.741640529
290.663117716
290.590553288
290.526656625
290.473329895
290.43128494
290.399991036
290.377940701
290.363097322
290.35335083
290.346852257
290.342179122
290.338353581
290.334769916
290.331088458
290.327135565
290.322828469
290.318127313
290.313009227
290.307457363
290.301458663
290.295005892
290.288100945
290.280757556
290.273002315
290.264873621
290.256418796
290.247690009
290.238739899
290.229617644
290.220366028
290.211019718
290.201604676
290.192138462
290.182631135
290.173086434
290.163503016
290.153875578
290.144195789
290.134452974
290.124634555
290.114726269
290.104712151
290.094574295
290.084292357
290.073842707
290.063197118
290.052321184
290.041172848
290.029735839
290.014407246
289.993145286
289.964138613
289.92519297
289.873561442
289.805758757
289.717198888
289.601169749
289.442900567
289.156038511
288.780481358
298.759414242
294.313176851
293.384199912
293.181379243
293.13296766
293.120363088
293.116793658
293.11569814
293.115335071
293.115205153
293.115154497
293.115132477
293.115121454
293.115114969
293.115110539
293.115107165
293.115104414
293.115102085
293.115100071
293.115098307
293.11509675
293.115095367
293.115094133
293.115093027
293.115092032
293.115091134
293.11509032
293.115089579
293.115088905
293.115088291
293.115087728
293.115087213
293.115086739
293.115086302
293.115085899
293.115085526
293.115085179
293.115084856
293.115084555
293.115084273
293.115084008
293.115083759
293.115083523
293.1150833
293.115083088
293.115082885
293.115082691
293.115082505
293.115082325
293.115082151
293.115081981
293.115081815
293.115081652
293.115081491
293.115081331
293.115081172
293.115081012
293.115080852
293.115080689
293.115080524
293.115080355
293.115080183
293.115080005
293.115079821
293.11507963
293.115079432
293.115079224
293.115079006
293.115078778
293.115078537
293.115078282
293.115078012
293.115077725
293.11507742
293.115077095
293.115076747
293.115076375
293.115075975
293.115075546
293.115075083
293.115074585
293.115074045
293.115073461
293.115072827
293.115072136
293.115071381
293.11507055
293.115069618
293.115068518
293.115067039
293.115064509
293.115058835
293.115043812
293.115002075
293.114888067
293.11459038
293.113856752
293.112162514
293.108515219
293.101228723
293.087769761
293.064838875
293.028811797
292.976487858
292.905862884
292.816564385
292.709733335
292.587349987
292.451042247
292.302981191
292.152796962
292.009047429
291.877488311
291.76112476
291.660840029
291.576164335
291.505923136
291.44867357
291.402941912
291.367311862
291.340410929
291.320820443
291.306872208
291.295919877
291.283978119
291.269846796
291.250274273
291.221865457
291.1820054
291.129902035
291.067124831
290.997354851
290.925225353
290.854812425
290.788692294
290.727981666
290.673005788
290.623948244
290.581112175
290.544824885
290.515209074
290.492014192
290.474586657
290.461963736
290.453033536
290.446700246
290.442010615
290.438222117
290.434815695
290.431469618
290.428014525
290.424386186
290.420585915
290.416648634
290.412623439
290.408564826
290.404526699
290.40055993
290.396712172
290.393028616
290.38955287
290.386327505
290.383394025
290.380792278
290.378559408
290.376728581
290.375327697
290.374378322
290.373895002
290.373885082
290.374348994
290.375280919
290.376669628
290.378499365
290.380750546
290.383400161
290.386421759
290.389784834
290.393453467
290.397383977
290.401521254
290.405793252
290.410102982
290.414316587
290.418244638
290.421613651
290.424033773
290.423518942
290.414160447
290.396001805
290.36697764
290.323899997
290.262708604
290.178322522
290.064445085
289.913341668
289.715695058
289.460544452
289.130244821
288.67447093
299.07561196
294.420420308
293.403248575
293.182484437
293.131836662
293.119555343
293.116399004
293.115531902
293.115273281
293.115187267
293.115154031
293.115138437
293.115129428
293.115123244
293.115118491
293.115114595
293.115111289
293.115108427
293.115105922
293.115103711
293.115101748
293.115099996
293.115098426
293.115097012
293.115095734
293.115094575
293.11509352
293.115092555
293.115091671
293.115090859
293.115090113
293.115089425
293.115088788
293.115088197
293.115087646
293.115087132
293.11508665
293.115086197
293.115085769
293.115085364
293.11508498
293.115084614
293.115084264
293.115083927
293.115083604
293.11508329
293.115082986
293.11508269
293.1150824
293.115082115
293.115081834
293.115081555
293.115081278
293.115081001
293.115080723
293.115080443
293.11508016
293.115079873
293.11507958
293.11507928
293.115078973
293.115078656
293.115078329
293.11507799
293.115077637
293.115077269
293.115076885
293.115076482
293.115076059
293.115075613
293.115075143
293.115074646
293.115074118
293.115073558
293.115072962
293.115072327
293.115071648
293.115070921
293.115070142
293.115069304
293.115068402
293.115067428
293.115066374
293.115065231
293.115063986
293.11506262
293.115061092
293.11505929
293.115056858
293.115052642
293.11504301
293.115017077
293.114944119
293.114742942
293.114214075
293.112905296
293.109879224
293.103379673
293.090474836
293.066878977
293.027226529
292.965949878
292.878577834
292.762966488
292.619984579
292.453481337
292.269675502
292.076219323
291.881179914
291.697121017
291.534033614
291.395851916
291.282795595
291.192813463
291.122854258
291.06972911
291.030576975
291.003036107
290.985224207
290.97559164
290.972660363
290.974597221
290.978430402
290.982086463
290.986221882
290.985318839
290.974375459
290.951122096
290.916293973
290.87309237
290.826041452
290.779656966
290.737405749
290.701278839
290.671958275
290.649280041
290.632672133
290.621406764
290.6146757
290.611589167
290.611188835
290.612506666
290.61465096
290.616884288
290.618668924
290.619673961
290.619751851
290.618898164
290.617207811
290.614836423
290.611970614
290.608807673
290.605543048
290.60236177
290.599433887
290.596913458
290.594938266
290.59362995
290.593094587
290.593423506
290.594694074
290.596970254
290.600302868
290.604729602
290.610274868
290.616949638
290.624751367
290.6336641
290.643658827
290.654694096
290.666716834
290.679663221
290.693459458
290.708022153
290.723258138
290.73906349
290.755321373
290.77189838
290.788638948
290.805357311
290.82182618
290.837761062
290.852798885
290.866468653
290.878150608
290.887019902
290.890950727
290.884323054
290.868769342
290.841831572
290.800104848
290.739174147
290.653450877
290.535998601
290.378380559
290.17062016
289.901589889
289.56075907
289.143002127
288.59399951
299.368391894
294.545835334
293.438478202
293.190848034
293.13351211
293.119790488
293.116390536
293.115510692
293.11526769
293.115192541
293.115164269
293.115150312
293.11514141
293.115134715
293.115129241
293.115124588
293.115120555
293.11511702
293.115113898
293.115111123
293.115108646
293.115106424
293.115104422
293.115102611
293.115100967
293.115099468
293.115098097
293.115096839
293.11509568
293.115094611
293.115093622
293.115092704
293.11509185
293.115091052
293.115090305
293.115089602
293.115088939
293.115088311
293.115087715
293.115087146
293.115086602
293.11508608
293.115085577
293.115085091
293.115084619
293.115084159
293.115083709
293.115083268
293.115082833
293.115082403
293.115081976
293.115081551
293.115081125
293.115080698
293.115080267
293.115079831
293.115079389
293.115078939
293.11507848
293.115078008
293.115077524
293.115077025
293.115076508
293.115075973
293.115075417
293.115074837
293.115074231
293.115073596
293.11507293
293.11507223
293.115071492
293.115070712
293.115069887
293.115069013
293.115068083
293.115067094
293.115066038
293.11506491
293.115063702
293.115062406
293.115061012
293.115059508
293.115057883
293.11505612
293.115054196
293.115052068
293.115049621
293.115046504
293.115041574
293.115031189
293.115004279
293.114929048
293.114719958
293.114162852
293.112762462
293.109470274
293.102276571
293.087741144
293.060692738
293.014452136
292.941845309
292.836890266
292.696594333
292.522177897
292.31934908
292.097689817
291.86945291
291.648075049
291.446672538
291.276675416
291.140202863
291.034922104
290.956297145
290.89918179
290.858822624
290.831326298
290.813754317
290.804001635
290.800564723
290.80225957
290.807933278
290.816254677
290.826823588
290.837662548
290.844330519
290.844358599
290.836896884
290.822745253
290.80418558
290.784368194
290.766448704
290.752847648
290.744895344
290.742883327
290.746354427
290.754427139
290.76603315
290.780050524
290.795373085
290.810961175
290.825894791
290.839425605
290.851013254
290.86033571
290.867276297
290.871894618
290.87438797
290.875050256
290.874234132
290.872319651
290.869690238
290.866716209
290.863744628
290.861093136
290.859046499
290.857855642
290.857737947
290.858878179
290.861429822
290.865516625
290.871234102
290.878650824
290.887809435
290.898727452
290.911397941
290.925790179
290.94185039
290.959502617
290.97864979
290.999175007
291.020942951
291.043801267
291.067581682
291.09210058
291.117158765
291.14254015
291.16800899
291.193305201
291.218137271
291.242172384
291.265022896
291.286227787
291.305227675
291.321330855
291.333667147
291.341125418
291.338533184
291.327855135
291.306920562
291.272533089
291.220468969
291.145283565
291.040124517
290.896588747
290.704668094
290.452904448
290.129010971
289.721129594
289.217239187
288.585121999
299.634663319
294.673526068
293.482092344
293.202601563
293.136527627
293.120535303
293.116572899
293.115561382
293.115289922
293.115209226
293.115179762
293.115165124
293.115155453
293.11514791
293.11514158
293.115136104
293.1151313
293.115127051
293.11512327
293.115119891
293.115116856
293.115114119
293.115111642
293.11510939
293.115107337
293.115105457
293.115103731
293.115102139
293.115100668
293.115099304
293.115098038
293.115096857
293.115095752
293.115094715
293.115093739
293.115092817
293.115091943
293.115091111
293.115090318
293.115089558
293.115088827
293.115088123
293.115087441
293.11508678
293.115086135
293.115085504
293.115084884
293.115084274
293.115083671
293.115083073
293.115082477
293.115081882
293.115081285
293.115080684
293.115080078
293.115079464
293.11507884
293.115078204
293.115077553
293.115076887
293.115076201
293.115075495
293.115074764
293.115074007
293.11507322
293.115072401
293.115071546
293.115070651
293.115069713
293.115068728
293.115067691
293.115066596
293.11506544
293.115064215
293.115062915
293.115061533
293.11506006
293.115058488
293.115056806
293.115055003
293.115053066
293.115050978
293.115048723
293.115046276
293.1150436
293.115040611
293.115037072
293.115032232
293.115023664
293.11500382
293.114950395
293.114801412
293.114396074
293.11334759
293.110800268
293.105030115
293.092911931
293.069424499
293.027554901
292.959024667
292.85599684
292.713374027
292.530853283
292.313951765
292.073691906
291.825117482
291.585022672
291.369289629
291.190254959
291.051381175
290.948772959
290.876093653
290.826451831
290.793672132
290.772867054
290.760522442
290.754316586
290.752832819
290.755260506
290.761137767
290.77007991
290.780934539
290.791934569
290.801590816
290.808916387
290.813561575
290.816016522
290.817583152
290.820095776
290.825456608
290.835160479
290.849992098
290.869973101
290.894505674
290.922595068
290.953052276
290.984636054
291.016140896
291.046455112
291.074607327
291.099807083
291.121478318
291.139278849
291.153097772
291.163039333
291.169398181
291.172618845
291.17324609
291.171875346
291.169110291
291.165530532
291.161672601
291.158021815
291.155008399
291.153006725
291.152336684
291.153266136
291.15601383
291.160752437
291.167611462
291.176679853
291.188008237
291.20161076
291.217466653
291.235521687
291.255689678
291.277854153
291.301870261
291.327566963
291.354749508
291.383202091
291.412690479
291.442964352
291.473758991
291.504795914
291.535782133
291.56640769
291.596340799
291.625219841
291.652642342
291.678150513
291.701210567
291.721183177
291.737282437
291.748515047
291.752082034
291.747578118
291.734677884
291.710669176
291.671808607
291.613152394
291.528329027
291.409358416
291.246562712
291.028593919
290.742708495
290.375541771
289.914659565
289.350274153
288.671204657
299.875072804
294.795463539
293.524825576
293.215494305
293.140190833
293.121548263
293.1168557
293.115648411
293.115325279
293.115230802
293.115197271
293.115180985
293.115170253
293.115161805
293.115154634
293.115148367
293.11514282
293.115137877
293.115133451
293.11512947
293.115125876
293.115122618
293.115119655
293.115116951
293.115114474
293.115112197
293.115110098
293.115108156
293.115106355
293.11510468
293.115103117
293.115101655
293.115100282
293.115098988
293.115097765
293.115096605
293.115095502
293.11509445
293.115093442
293.115092474
293.11509154
293.115090637
293.115089761
293.115088908
293.115088075
293.115087258
293.115086454
293.11508566
293.115084874
293.115084093
293.115083314
293.115082534
293.115081751
293.115080963
293.115080167
293.115079359
293.115078539
293.115077703
293.115076848
293.115075971
293.11507507
293.115074141
293.115073181
293.115072187
293.115071155
293.115070081
293.11506896
293.115067789
293.115066562
293.115065275
293.11506392
293.115062493
293.115060986
293.115059391
293.115057701
293.115055905
293.115053994
293.115051955
293.115049776
293.115047441
293.115044935
293.115042236
293.115039322
293.11503616
293.115032696
293.115028802
293.115024104
293.115017408
293.115004907
293.114974957
293.114893822
293.114669766
293.114070351
293.112550673
293.108938756
293.100945295
293.084559637
293.053580397
292.999729053
292.913799592
292.787913911
292.618292045
292.407478276
292.165086393
291.906719954
291.651327146
291.417610923
291.220340423
291.067592191
290.957295424
290.881816909
290.832787794
290.802549248
290.784989681
290.775736743
290.771974131
290.772103352
290.775386127
290.78163864
290.79041981
290.800342912
290.811283634
290.823090381
290.835547902
290.848654905
290.86276524
290.878621274
290.897246554
290.919715498
290.946875023
290.97912046
291.016301053
291.05776375
291.102485263
291.149225636
291.1966577
291.24345871
291.288372127
291.330254005
291.368113935
291.401151225
291.42879019
291.450714044
291.466869762
291.477478913
291.483082648
291.484460308
291.482527345
291.478234791
291.472482939
291.466060469
291.459642501
291.453822088
291.449108138
291.445926355
291.444623863
291.445475931
291.448693221
291.454428508
291.462782395
291.473807924
291.487514194
291.503869234
291.52280242
291.544206745
291.567941201
291.59383345
291.621682908
291.651264223
291.682331089
291.71462018
291.747854857
291.78174818
291.816004713
291.850320428
291.884380074
291.917851843
291.950378842
291.98156589
292.010963497
292.038052453
292.062223777
292.082744393
292.098716981
292.109036806
292.11112121
292.106865955
292.094290726
292.070285728
292.030604547
291.969610623
291.880028153
291.752788469
291.577009002
291.339987712
291.027396373
290.624033191
290.115741238
289.492176752
288.738660371
300.092164915
294.910924334
293.566881228
293.228935123
293.14423673
293.122731279
293.117202691
293.115757654
293.115367802
293.115254462
293.115215255
293.115196882
293.115185034
293.115175737
293.115167806
293.115160825
293.115154601
293.115149017
293.115143985
293.115139435
293.115135305
293.115131544
293.115128107
293.115124957
293.115122061
293.115119388
293.115116916
293.115114621
293.115112486
293.115110494
293.115108629
293.115106878
293.115105229
293.11510367
293.115102193
293.115100788
293.115099448
293.115098166
293.115096935
293.11509575
293.115094604
293.115093495
293.115092416
293.115091363
293.115090332
293.11508932
293.115088323
293.115087338
293.115086361
293.115085388
293.115084418
293.115083446
293.115082469
293.115081485
293.115080491
293.115079483
293.115078459
293.115077414
293.115076347
293.115075252
293.115074128
293.115072969
293.115071772
293.115070533
293.115069248
293.115067911
293.115066517
293.115065062
293.115063538
293.115061941
293.115060261
293.115058493
293.115056628
293.115054655
293.115052566
293.115050349
293.11504799
293.115045477
293.115042792
293.115039918
293.115036835
293.115033518
293.115029937
293.115026055
293.115021801
293.115017014
293.115011216
293.11500289
293.114987247
293.114949786
293.114848955
293.114573135
293.113843129
293.11201336
293.107715416
293.098316965
293.079280268
293.043710748
292.982595271
292.886216654
292.74679053
292.561616736
292.335476714
292.081114263
291.81735305
291.565265877
291.34348633
291.164173214
291.031120493
290.940221137
290.882342626
290.848176847
290.829981079
290.82199296
290.820353401
290.822768639
290.828097014
290.835970064
290.845316668
290.855503866
290.867361053
290.881267145
290.89745866
290.916199755
290.937866909
290.962979225
290.992159531
291.026024441
291.065029916
291.109322516
291.158648285
291.212346196
291.269416704
291.328630825
291.388643027
291.448085669
291.50563953
291.560084743
291.610339129
291.655490399
291.694814426
291.727795505
291.7542172
291.773445228
291.784479578
291.788024072
291.785383873
291.778187919
291.768238446
291.757364221
291.746459466
291.735909661
291.726325122
291.718287135
291.712290082
291.708723435
291.707873879
291.709935855
291.715024772
291.723189611
291.734423523
291.748672084
291.765839514
291.785793455
291.808368943
291.8333721
291.860583936
291.889764498
291.920657419
291.952994799
291.986502083
292.020902458
292.055920092
292.091281477
292.126714018
292.16194026
292.196667606
292.230574443
292.263287691
292.294352521
292.323212345
292.349197336
292.371483789
292.389062455
292.400027123
292.404830928
292.40415924
292.395697443
292.375954315
292.340137592
292.281855873
292.192871497
292.063024215
291.880347775
291.630788306
291.298020321
290.863940142
290.310635361
289.623284714
288.78364366
300.2887329
295.019980503
293.607990443
293.242638582
293.148538268
293.124037843
293.11759769
293.115883276
293.115415135
293.115279057
293.115233008
293.115212281
293.115199332
293.115189281
293.115180695
293.115173094
293.115166275
293.115160119
293.11515454
293.115149466
293.115144838
293.115140605
293.11513672
293.115133144
293.115129844
293.115126789
293.115123953
293.115121312
293.115118848
293.115116543
293.115114378
293.11511234
293.115110415
293.115108591
293.115106858
293.115105206
293.115103627
293.115102113
293.115100657
293.115099252
293.115097893
293.115096573
293.115095287
293.115094032
293.115092801
293.115091591
293.115090398
293.115089217
293.115088045
293.115086878
293.115085712
293.115084545
293.115083371
293.115082189
293.115080994
293.115079782
293.11507855
293.115077295
293.115076011
293.115074696
293.115073345
293.115071954
293.115070518
293.115069032
293.115067491
293.115065889
293.115064221
293.115062479
293.115060658
293.115058749
293.115056744
293.115054634
293.11505241
293.11505006
293.115047573
293.115044935
293.115042131
293.115039146
293.115035959
293.11503255
293.115028895
293.115024967
293.11502073
293.11501614
293.115011119
293.115005491
293.114998737
293.114989234
293.114971887
293.114931336
293.114823776
293.11453205
293.113764387
293.111848947
293.10736695
293.097597203
293.077857407
293.041038288
292.977849622
292.878308529
292.73456685
292.544352686
292.313591565
292.056774275
291.794469566
291.548594172
291.337084335
291.170020033
291.048675707
290.967492903
290.918044822
290.891710877
290.880564149
290.878936594
290.883142524
290.891050391
290.901156773
290.912018771
290.923953149
290.937774235
290.954008155
290.973120213
290.995555979
291.021766932
291.052215828
291.087353284
291.127558678
291.173051401
291.223794537
291.279421599
291.339211978
291.402123827
291.466874061
291.532044251
291.596192012
291.65795498
291.716141495
291.769804193
291.818290777
291.86127835
291.898486782
291.929196477
291.953370186
291.971862978
291.986276268
291.99672069
292.002888901
292.004473791
292.001341924
291.993644723
291.983084064
291.971838659
291.960582819
291.950125453
291.941232286
291.934550119
291.930578623
291.929666873
291.932025997
291.937748651
291.946830462
291.959190137
291.974686568
291.993132661
292.014306314
292.037959244
292.063824401
292.091622613
292.121068926
292.15187886
292.183774561
292.216490591
292.249778884
292.283412316
292.317186826
292.350919353
292.384438741
292.417578257
292.450157336
292.481897182
292.51238462
292.541116736
292.567262685
292.588586424
292.604241014
292.616585263
292.62477916
292.626225797
292.616953265
292.591407716
292.542196534
292.459949453
292.333399487
292.149881044
291.894241123
291.547886428
291.088931721
290.49432223
289.743344036
288.8150557
300.46752486
295.123095272
293.648112534
293.256539581
293.153037188
293.125442272
293.118031738
293.116022358
293.11546625
293.115304116
293.115250215
293.115226911
293.115212888
293.115202178
293.115193042
293.115184922
293.115177596
293.115170943
293.115164879
293.115159337
293.115154257
293.115149589
293.115145289
293.115141316
293.115137636
293.115134217
293.115131034
293.115128062
293.115125282
293.115122672
293.115120216
293.115117897
293.115115702
293.115113617
293.115111632
293.115109737
293.115107922
293.115106178
293.115104498
293.115102875
293.115101302
293.115099773
293.115098282
293.115096824
293.115095393
293.115093985
293.115092596
293.115091219
293.115089853
293.115088491
293.115087131
293.115085768
293.115084397
293.115083016
293.11508162
293.115080204
293.115078766
293.115077299
293.115075801
293.115074266
293.11507269
293.115071067
293.115069393
293.115067661
293.115065866
293.115064001
293.11506206
293.115060036
293.115057919
293.115055702
293.115053376
293.115050929
293.115048351
293.11504563
293.115042752
293.115039701
293.115036462
293.115033014
293.115029337
293.115025407
293.115021197
293.115016675
293.115011804
293.115006534
293.115000785
293.114994384
293.114986839
293.11497663
293.114959008
293.114919672
293.114817815
293.114544135
293.113825803
293.112032533
293.107827054
293.098627496
293.079950224
293.044902155
292.98432652
292.888171489
292.74828741
292.562026026
292.335145377
292.082333493
291.824527384
291.583748492
291.377524849
291.215261444
291.097825574
291.01980947
290.972770635
290.948333863
290.939765873
290.941500839
290.949378554
290.960515911
290.97349856
290.988242041
291.004889229
291.023820718
291.045518865
291.070494998
291.099246937
291.132227568
291.16980998
291.212239707
291.25957213
291.311602975
291.367808664
291.427316345
291.488918764
291.551139033
291.612340078
291.670867365
291.725211437
291.774175293
291.817027431
291.853617613
291.884417915
291.911329769
291.936678099
291.962492591
291.989079317
292.015971904
292.042421195
292.067521696
292.090334367
292.109967203
292.125596833
292.136445007
292.141710396
292.141333761
292.137661943
292.132405472
292.12642973
292.120699348
292.116082646
292.113304107
292.11292354
292.115330144
292.120752052
292.129276076
292.140871627
292.155415366
292.172714133
292.192525071
292.214572572
292.238562341
292.264193082
292.291166422
292.319195447
292.348012262
292.377375238
292.407076848
292.436953285
292.466899224
292.496832025
292.526721049
292.556881358
292.586833121
292.615988236
292.643706273
292.669278968
292.693028333
292.715583503
292.737625353
292.758434584
292.775408619
292.783781149
292.77643137
292.744068847
292.675575847
292.558413963
292.380003945
292.12469737
291.771507627
291.294063618
290.663220072
289.85182773
288.838007004
300.631006264
295.220878087
293.687399556
293.270878349
293.157708442
293.126925183
293.118498103
293.116172967
293.115520614
293.115329455
293.115266758
293.115240655
293.11522557
293.115214286
293.115204701
293.115196156
293.115188407
293.115181332
293.11517485
293.115168896
293.115163414
293.115158356
293.115153677
293.115149338
293.115145306
293.115141549
293.11513804
293.115134755
293.115131673
293.115128773
293.115126037
293.115123448
293.115120991
293.115118654
293.115116425
293.115114292
293.115112247
293.115110278
293.11510838
293.115106543
293.11510476
293.115103025
293.115101331
293.115099673
293.115098046
293.115096442
293.115094859
293.11509329
293.11509173
293.115090177
293.115088624
293.115087067
293.115085502
293.115083924
293.115082329
293.115080712
293.115079069
293.115077394
293.115075684
293.115073932
293.115072133
293.115070282
293.115068373
293.1150664
293.115064356
293.115062233
293.115060024
293.115057722
293.115055316
293.115052799
293.115050158
293.115047383
293.115044461
293.115041379
293.115038121
293.115034671
293.115031009
293.115027116
293.115022967
293.115018537
293.115013794
293.115008706
293.115003231
293.114997318
293.114990889
293.114983784
293.114975585
293.114965012
293.114948096
293.11491287
293.114825036
293.114592185
293.113981958
293.112452725
293.10884256
293.100876987
293.084536729
293.053503213
292.999134728
292.911553975
292.782183798
292.607309557
292.391268512
292.147419508
291.895776349
291.657911939
291.451362083
291.286043112
291.163856743
291.080771086
291.029708846
291.002927101
290.99342878
290.9955569
291.005144724
291.019408555
291.036727235
291.056373111
291.078200504
291.102414595
291.129400889
291.159602682
291.193434191
291.231213548
291.273102537
291.319045926
291.368710849
291.421434869
291.476197573
291.531632874
291.586096618
291.63779771
291.684992235
291.726229005
291.760619965
291.788087797
291.809512976
291.827110585
291.845863155
291.868524427
291.895758154
291.927278824
291.962187618
291.999264284
292.037199081
292.074740851
292.110782098
292.144396793
292.174839643
292.201514644
292.223912906
292.24150628
292.25350144
292.260144759
292.263476413
292.264994829
292.265446107
292.265675597
292.266463707
292.268470819
292.272215673
292.278069459
292.286258995
292.29688104
292.309921471
292.325277527
292.342779757
292.362212431
292.383331483
292.405880171
292.429602851
292.454257003
292.479625634
292.505567401
292.532024584
292.559469474
292.587600636
292.615629851
292.642448245
292.667886381
292.692090224
292.715168909
292.737264645
292.758744864
292.780368843
292.80318768
292.827915631
292.854257088
292.878818928
292.89310709
292.884219305
292.836328749
292.734437912
292.566824496
292.318122936
291.964876875
291.475684829
290.814629412
289.947912545
288.855279727
300.781176098
295.313650108
293.725406143
293.284699734
293.162396465
293.128456037
293.118989879
293.116333525
293.115577912
293.115355029
293.11528263
293.115253488
293.115237338
293.115225548
293.115215599
293.115206715
293.115198624
293.115191199
293.115184363
293.115178054
293.11517222
293.115166815
293.115161796
293.115157127
293.115152773
293.115148703
293.115144891
293.115141313
293.115137949
293.115134775
293.115131773
293.115128927
293.115126221
293.115123641
293.115121177
293.115118815
293.115116547
293.115114361
293.11511225
293.115110204
293.115108217
293.115106282
293.11510439
293.115102537
293.115100716
293.115098922
293.115097148
293.11509539
293.115093642
293.115091899
293.115090157
293.11508841
293.115086654
293.115084883
293.115083093
293.115081279
293.115079435
293.115077557
293.115075638
293.115073674
293.115071658
293.115069584
293.115067446
293.115065236
293.115062948
293.115060574
293.115058105
293.115055533
293.115052847
293.115050038
293.115047093
293.115044
293.115040747
293.115037317
293.115033694
293.11502986
293.115025795
293.115021476
293.115016878
293.115011972
293.115006727
293.115001105
293.114995064
293.114988551
293.114981492
293.11497375
293.11496499
293.114954229
293.11493844
293.114908479
293.11483797
293.114655196
293.114177809
293.112975114
293.110108508
293.103705429
293.090378859
293.064646656
293.018722747
292.943228306
292.829267605
292.671713433
292.472568348
292.242567189
291.999599134
291.76418316
291.554056835
291.380427837
291.247164298
291.152349125
291.090699655