/*--------------------------------*- C++ -*----------------------------------*\
  =========                 |
  \\      /  F ield         | OpenFOAM: The Open Source CFD Toolbox
   \\    /   O peration     | Website:  https://openfoam.org
    \\  /    A nd           | Version:  12
     \\/     M anipulation  |
\*---------------------------------------------------------------------------*/
FoamFile
{
    format      ascii;
    class       volVectorField;
    location    "10";
    object      U;
}
// * * * * * * * * * * * * * * * * * * * * * * * * * * * * * * * * * * * * * //

dimensions      [0 1 -1 0 0 0 0];

internalField   nonuniform List<vector> 
40000
(
(-0.0119556786531 0.00838035130991 0)
(-0.0170974619441 -0.000203083886563 0)
(-0.0149835162343 -0.00174675334003 0)
(-0.0118866473068 -0.00151474496256 0)
(-0.0092813512685 -0.00103943244062 0)
(-0.00742187132583 -0.000670765028129 0)
(-0.00613186285361 -0.000430030788661 0)
(-0.00522592959915 -0.000279948216064 0)
(-0.00457366791197 -0.000187004570255 0)
(-0.00409200779255 -0.000128709449129 0)
(-0.00372782383308 -9.12510854933e-05 0)
(-0.00344670572473 -6.64597972871e-05 0)
(-0.00322592852411 -4.95288760797e-05 0)
(-0.00305013009516 -3.75993676247e-05 0)
(-0.0029086685201 -2.89390370746e-05 0)
(-0.0027939926089 -2.24750929912e-05 0)
(-0.00270062067333 -1.75273850873e-05 0)
(-0.00262448889241 -1.36533433358e-05 0)
(-0.00256252707275 -1.05567147551e-05 0)
(-0.00251237663078 -8.03398232319e-06 0)
(-0.00247219825661 -5.94283995296e-06 0)
(-0.00244053824237 -4.18226926626e-06 0)
(-0.00241623473108 -2.6783261574e-06 0)
(-0.00239835237808 -1.37348268225e-06 0)
(-0.00238613960104 -2.17770015801e-07 0)
(-0.0023789971056 8.44693853779e-07 0)
(-0.00237639814732 1.86565240537e-06 0)
(-0.0023781362755 2.73359404646e-06 0)
(-0.00238396722036 3.46300282259e-06 0)
(-0.00239334087733 4.1340135774e-06 0)
(-0.00240591984298 4.78286282318e-06 0)
(-0.00242148636232 5.39586246656e-06 0)
(-0.00243986402814 5.97426885429e-06 0)
(-0.00246089495714 6.52524715652e-06 0)
(-0.00248444795306 7.05648046768e-06 0)
(-0.00251041879813 7.57446162328e-06 0)
(-0.00253872734717 8.08419226415e-06 0)
(-0.0025693138083 8.58945912167e-06 0)
(-0.00260213593108 9.09344886799e-06 0)
(-0.0026371667871 9.5991977227e-06 0)
(-0.00267439316623 1.01097264635e-05 0)
(-0.00271381428082 1.06278575015e-05 0)
(-0.00275544088255 1.11561515026e-05 0)
(-0.00279929467482 1.1697042462e-05 0)
(-0.00284540776543 1.22529857477e-05 0)
(-0.00289382244436 1.28264899686e-05 0)
(-0.00294459086433 1.34199908627e-05 0)
(-0.00299777499484 1.40358452679e-05 0)
(-0.00305344669064 1.46764360507e-05 0)
(-0.00311168769979 1.5344242992e-05 0)
(-0.00317258985112 1.60418589683e-05 0)
(-0.00323625504122 1.67719331529e-05 0)
(-0.00330279545892 1.75371517564e-05 0)
(-0.00337233387779 1.83402872293e-05 0)
(-0.00344500386586 1.91842194674e-05 0)
(-0.00352095029377 2.00719512234e-05 0)
(-0.00360032983589 2.10066143036e-05 0)
(-0.00368331189278 2.19915662356e-05 0)
(-0.00377007980369 2.30305639479e-05 0)
(-0.00386083204569 2.41278463053e-05 0)
(-0.00395578390099 2.52881899109e-05 0)
(-0.00405516896033 2.65168843232e-05 0)
(-0.00415924076251 2.78196784949e-05 0)
(-0.00426827466262 2.92028263641e-05 0)
(-0.00438256907597 3.06729424984e-05 0)
(-0.00450244703307 3.22369057554e-05 0)
(-0.00462825786456 3.39019350057e-05 0)
(-0.0047603788805 3.56756521557e-05 0)
(-0.00489921802775 3.75662232741e-05 0)
(-0.0050452165048 3.95823880369e-05 0)
(-0.00519885172565 4.1733548197e-05 0)
(-0.00536064166008 4.4030249256e-05 0)
(-0.00553114947043 4.64846090891e-05 0)
(-0.00571098849216 4.91103005847e-05 0)
(-0.00590082740559 5.19222282111e-05 0)
(-0.00610139538295 5.49364288489e-05 0)
(-0.00631348861378 5.81704298328e-05 0)
(-0.00653797790522 6.16434198948e-05 0)
(-0.00677581625046 6.5375825566e-05 0)
(-0.00702804696128 6.93889825432e-05 0)
(-0.00729581319287 7.37057574879e-05 0)
(-0.00758036974163 7.83518542029e-05 0)
(-0.00788309804974 8.33566907014e-05 0)
(-0.00820552401415 8.8753431989e-05 0)
(-0.00854933852525 9.45788436158e-05 0)
(-0.00891642326362 0.000100873883992 0)
(-0.00930888445446 0.000107685406249 0)
(-0.00972909522189 0.000115068173602 0)
(-0.0101797479177 0.000123086507682 0)
(-0.0106639203909 0.000131816067942 0)
(-0.0111851626519 0.000141345426245 0)
(-0.0117476133125 0.000151775517105 0)
(-0.0123561522312 0.000163213815712 0)
(-0.0130165839542 0.000175756678127 0)
(-0.0137358284115 0.000189449646651 0)
(-0.0145220594382 0.000204216051212 0)
(-0.0153846616459 0.000219752626324 0)
(-0.016333766243 0.000235415986306 0)
(-0.017378985364 0.00025016200324 0)
(-0.0185268484452 0.000262609498868 0)
(-0.019776501394 0.000271210506748 0)
(-0.0211137034699 0.000274316472175 0)
(-0.0225042464315 0.000269854654624 0)
(-0.0238894224957 0.000254717722495 0)
(-0.0251871250199 0.000224726337597 0)
(-0.0263013252692 0.000176131384588 0)
(-0.0271390758545 0.000108268546064 0)
(-0.0276270035623 2.64716535854e-05 0)
(-0.0277206731876 -5.36916672327e-05 0)
(-0.0274506417565 -0.000116227246379 0)
(-0.0267936731333 -0.000189829747452 0)
(-0.0257561032401 -0.00028086372273 0)
(-0.0243775799758 -0.000380980315017 0)
(-0.0227211587275 -0.000477162234135 0)
(-0.0208672194245 -0.000556772058452 0)
(-0.0189047405098 -0.000609954809539 0)
(-0.0169241973519 -0.000630338169837 0)
(-0.0150130064583 -0.00061477946191 0)
(-0.0132527042837 -0.00056277911472 0)
(-0.0117164793354 -0.000475866879923 0)
(-0.0104661827061 -0.000357272191924 0)
(-0.00954839155713 -0.000212032053366 0)
(-0.00898796946425 -4.72510181179e-05 0)
(-0.00877323165566 0.000121588688008 0)
(-0.00893815044301 0.000252188245376 0)
(-0.00951316971852 0.000340471609077 0)
(-0.010417947438 0.000376288767568 0)
(-0.01154800556 0.000355106508681 0)
(-0.0127913997288 0.000275068071493 0)
(-0.0140604493968 0.000143113915029 0)
(-0.0153075682048 -1.61086889395e-05 0)
(-0.0165292184988 -0.000166016166873 0)
(-0.0177612767252 -0.000269053415094 0)
(-0.0190595152848 -0.00029965838713 0)
(-0.0204732225664 -0.000253643973386 0)
(-0.0220230514576 -0.000148816866518 0)
(-0.0236908589636 -1.66132831208e-05 0)
(-0.0254241269989 0.000110421152325 0)
(-0.0271512606907 0.000208591412377 0)
(-0.0287997364867 0.000266971028301 0)
(-0.0303098705833 0.000285863215174 0)
(-0.0316413155369 0.000272455314334 0)
(-0.0327735299108 0.000236382491085 0)
(-0.0337030565399 0.000186796122586 0)
(-0.0344398364582 0.000131101788339 0)
(-0.0350036714162 7.48215527071e-05 0)
(-0.0354212579284 2.19810087369e-05 0)
(-0.035723888489 -2.44086543336e-05 0)
(-0.0359457258919 -6.21203878057e-05 0)
(-0.0361226131587 -8.98845288645e-05 0)
(-0.0362916481186 -0.000107519077804 0)
(-0.0364909080251 -0.000114681935576 0)
(-0.0367570608699 -0.00010883134849 0)
(-0.0371245103053 -8.78380189341e-05 0)
(-0.0376266260612 -5.08235992403e-05 0)
(-0.038294998903 2.5913776815e-06 0)
(-0.0391583654325 7.263299509e-05 0)
(-0.0402421094707 0.000159374179958 0)
(-0.0415678886817 0.000262604165411 0)
(-0.0431532741785 0.000381684520688 0)
(-0.0450114156112 0.000515445354661 0)
(-0.047150773122 0.000662159626858 0)
(-0.0495749598061 0.000819606258886 0)
(-0.0522827316982 0.000985191148685 0)
(-0.0552681455837 0.00115608583533 0)
(-0.0585208779541 0.00132937096534 0)
(-0.0620266812187 0.00150219291677 0)
(-0.065767944178 0.0016719334611 0)
(-0.0697243203038 0.00183635926443 0)
(-0.073873384071 0.00199370961152 0)
(-0.07819126496 0.00214271025193 0)
(-0.0826532057145 0.00228252766918 0)
(-0.087233993044 0.00241269000604 0)
(-0.091908189431 0.00253300250818 0)
(-0.0966501434045 0.00264339325195 0)
(-0.101433773182 0.00274371278755 0)
(-0.10623207442 0.00283352164708 0)
(-0.111016307357 0.00291185039268 0)
(-0.115754800514 0.00297690511928 0)
(-0.120411278273 0.00302569609492 0)
(-0.124942639608 0.0030535786494 0)
(-0.129296104985 0.0030536476673 0)
(-0.133405397295 0.00301575101449 0)
(-0.137185143737 0.00292478782663 0)
(-0.140522315665 0.00275851745972 0)
(-0.143263361172 0.00248610505831 0)
(-0.14519694399 0.00206549285546 0)
(-0.146047845619 0.00142687943779 0)
(-0.145539362075 0.000457241056042 0)
(-0.143135899381 -0.000845565804237 0)
(-0.138341318378 -0.00248645585069 0)
(-0.130618381393 -0.00448637582396 0)
(-0.119397890953 -0.00685342215611 0)
(-0.104157898935 -0.00955251661784 0)
(-0.0846456852601 -0.0124559986838 0)
(-0.0613153933852 -0.0152206862994 0)
(-0.0357902739125 -0.0169718286898 0)
(-0.0103634159183 -0.0155244148265 0)
(0.0134035191911 -0.00175578543506 0)
(0.0106986077782 0.00668565312597 0)
(-0.010058677855 0.0214494996693 0)
(-0.0161505156785 0.00244737030498 0)
(-0.01720666435 -0.0035495896037 0)
(-0.0161178384975 -0.00398718398197 0)
(-0.0144912944772 -0.00321731133939 0)
(-0.0129499611834 -0.00239141440078 0)
(-0.0116542893275 -0.00174927732553 0)
(-0.0106001131968 -0.0012895177743 0)
(-0.00974779409815 -0.000966396882498 0)
(-0.00905668574852 -0.000737840086522 0)
(-0.00849302224806 -0.000573426020438 0)
(-0.00803030698356 -0.000452670944295 0)
(-0.0076481102321 -0.000362042685753 0)
(-0.00733073118942 -0.000292582718314 0)
(-0.00706606338766 -0.000238291393594 0)
(-0.00684471024102 -0.000195085496059 0)
(-0.00665931888922 -0.000160135242431 0)
(-0.00650408539673 -0.000131441198364 0)
(-0.0063743869885 -0.000107563163102 0)
(-0.00626650808301 -8.74451834572e-05 0)
(-0.00617743625706 -7.03007915746e-05 0)
(-0.00610471044619 -5.55350395803e-05 0)
(-0.00604630739331 -4.26889576349e-05 0)
(-0.00600055434935 -3.1398920095e-05 0)
(-0.0059660600853 -2.13652878353e-05 0)
(-0.00594167506055 -1.23236996217e-05 0)
(-0.00592649554403 -4.03460206239e-06 0)
(-0.00591950125362 3.6126594404e-06 0)
(-0.0059204063489 1.06443482975e-05 0)
(-0.00592882800548 1.7069393861e-05 0)
(-0.00594402566251 2.29901332869e-05 0)
(-0.00596548648137 2.84817506611e-05 0)
(-0.00599277588459 3.36166116091e-05 0)
(-0.00602553815409 3.84610207511e-05 0)
(-0.00606348140782 4.3073409116e-05 0)
(-0.00610636868366 4.75036614824e-05 0)
(-0.00615401045305 5.17939810345e-05 0)
(-0.00620625819588 5.59801882935e-05 0)
(-0.00626299936689 6.00933068433e-05 0)
(-0.00632415297762 6.41608340576e-05 0)
(-0.00638966599523 6.82076319609e-05 0)
(-0.00645951040798 7.22563050995e-05 0)
(-0.00653368097479 7.63275842314e-05 0)
(-0.00661219385997 8.0441011646e-05 0)
(-0.00669508526188 8.46153332364e-05 0)
(-0.00678241059702 8.88688299337e-05 0)
(-0.00687424378423 9.32193577697e-05 0)
(-0.00697067688586 9.76845015694e-05 0)
(-0.00707182023739 0.00010228192654 0)
(-0.0071778023412 0.000107029492893 0)
(-0.00728877028885 0.000111945490963 0)
(-0.00740488999985 0.000117048620957 0)
(-0.00752634663726 0.000122357971534 0)
(-0.00765334551468 0.00012789323976 0)
(-0.0077861126766 0.000133674758912 0)
(-0.00792489610826 0.000139723801452 0)
(-0.00806996685792 0.000146062811595 0)
(-0.00822162025396 0.000152715687135 0)
(-0.00838017785423 0.000159708452935 0)
(-0.00854598900612 0.000167069518716 0)
(-0.00871943319225 0.000174830043096 0)
(-0.00890092252818 0.000183024193744 0)
(-0.00909090396333 0.000191688922969 0)
(-0.00928986270044 0.000200864224026 0)
(-0.00949832519434 0.000210593094942 0)
(-0.00971686264699 0.000220921447262 0)
(-0.00994609577147 0.000231898747761 0)
(-0.0101866986875 0.000243578337624 0)
(-0.0104394038087 0.000256017976697 0)
(-0.0107050078753 0.000269280835084 0)
(-0.0109843780476 0.000283436261114 0)
(-0.0112784597187 0.00029856112529 0)
(-0.0115882845158 0.000314741107716 0)
(-0.0119149786243 0.000332071191189 0)
(-0.0122597742479 0.000350656637084 0)
(-0.0126240227368 0.000370614446802 0)
(-0.0130092081431 0.000392074506847 0)
(-0.0134169621645 0.000415180481013 0)
(-0.0138490812267 0.000440090646631 0)
(-0.014307548252 0.000466979807336 0)
(-0.0147945599727 0.000496043515317 0)
(-0.0153125570407 0.000527503329038 0)
(-0.0158642579759 0.000561611708532 0)
(-0.0164527020746 0.000598658015617 0)
(-0.0170813039307 0.00063897701096 0)
(-0.0177539205959 0.000682959564786 0)
(-0.0184749347606 0.00073106612517 0)
(-0.0192493622184 0.000783844885609 0)
(-0.0200829996009 0.000841958325479 0)
(-0.0209826324772 0.000906222939776 0)
(-0.0219563237314 0.000977663631914 0)
(-0.0230138126202 0.00105758101924 0)
(-0.0241670734611 0.00114762971056 0)
(-0.0254310775836 0.00124989616368 0)
(-0.0268247335159 0.00136693361657 0)
(-0.0283717889252 0.00150165121568 0)
(-0.0301010790487 0.00165685611071 0)
(-0.0320448817298 0.00183411695647 0)
(-0.0342335277754 0.00203152705653 0)
(-0.0366845259514 0.00224013103579 0)
(-0.0393863495835 0.00243962760805 0)
(-0.0422810286707 0.0025955638667 0)
(-0.0452537862918 0.00266154694459 0)
(-0.0481380351102 0.00258892238568 0)
(-0.0507379232717 0.0023420935374 0)
(-0.0528617731799 0.0019128842187 0)
(-0.0543531673698 0.00132663299286 0)
(-0.0551061639178 0.000637249312415 0)
(-0.0550784646007 -9.13308527421e-05 0)
(-0.0543015879666 -0.000824163921917 0)
(-0.052843323316 -0.00154293404481 0)
(-0.0508388085522 -0.00219653252584 0)
(-0.0484478381661 -0.00273562679172 0)
(-0.0458264057591 -0.00313032402521 0)
(-0.0431114529969 -0.00336969468048 0)
(-0.0404177578518 -0.00345545187315 0)
(-0.0378410116359 -0.00339570982462 0)
(-0.0354625919109 -0.00320119071689 0)
(-0.0333533509934 -0.00288461352555 0)
(-0.0315755012134 -0.00246345735973 0)
(-0.0301829938272 -0.00196482397722 0)
(-0.0292226232527 -0.00142390076225 0)
(-0.0287453237804 -0.0008586068401 0)
(-0.0288539445451 -0.000241519348509 0)
(-0.0297345439157 0.000423482153024 0)
(-0.0313156305272 0.00107544654544 0)
(-0.0335675750585 0.00164511500342 0)
(-0.0364257130571 0.00208849843416 0)
(-0.0398106410285 0.00239386010518 0)
(-0.0436282020229 0.00258845515688 0)
(-0.0477812611424 0.00272939841363 0)
(-0.0521700233829 0.00287412960601 0)
(-0.0566850320717 0.00305259775233 0)
(-0.0612101220744 0.0032559384057 0)
(-0.0656350137357 0.00344547647139 0)
(-0.0698690089699 0.00357414541255 0)
(-0.0738468369653 0.00360623511121 0)
(-0.0775255468937 0.00352659966279 0)
(-0.0808775227945 0.00334010763532 0)
(-0.0838850535336 0.00306598756111 0)
(-0.0865387360955 0.00273092326012 0)
(-0.0888383267448 0.00236304768313 0)
(-0.0907938398365 0.00198806154909 0)
(-0.0924258868513 0.00162761798453 0)
(-0.0937650485298 0.00129896245027 0)
(-0.0948503013434 0.0010150902954 0)
(-0.0957267944023 0.000785186084022 0)
(-0.0964434626802 0.000615185133446 0)
(-0.0970508287217 0.000508313997754 0)
(-0.0975989912064 0.00046553883687 0)
(-0.098135674136 0.000486087571377 0)
(-0.0987051548713 0.00056822638961 0)
(-0.0993497525914 0.000709707150498 0)
(-0.100107988271 0.000906874186391 0)
(-0.101012428149 0.00115507351129 0)
(-0.10209074692 0.00144890222161 0)
(-0.103365427468 0.00178224976698 0)
(-0.104853456579 0.00214841269517 0)
(-0.106566173554 0.00254022006766 0)
(-0.108509231935 0.00295013388187 0)
(-0.110682695363 0.00337035952913 0)
(-0.11308128936 0.00379302217319 0)
(-0.115694786559 0.00421040661548 0)
(-0.118508467103 0.00461520116796 0)
(-0.121503614124 0.00500069183134 0)
(-0.124658055912 0.00536090262029 0)
(-0.127946780138 0.0056907102241 0)
(-0.131342607995 0.00598594253033 0)
(-0.134816874893 0.00624343001957 0)
(-0.138340055482 0.00646097313659 0)
(-0.14188229959 0.00663722406212 0)
(-0.145413863189 0.00677150077235 0)
(-0.148905395226 0.00686354900414 0)
(-0.152328079764 0.00691325275706 0)
(-0.155653580843 0.00692028529073 0)
(-0.158853738933 0.00688371281224 0)
(-0.161900014632 0.00680154278164 0)
(-0.164762647815 0.00667020807832 0)
(-0.167409469472 0.00648395628741 0)
(-0.169804266316 0.00623409354247 0)
(-0.171904644724 0.00590805362913 0)
(-0.173659463186 0.00548818948577 0)
(-0.175005735666 0.00494984108815 0)
(-0.175863870512 0.00425807113307 0)
(-0.176128687375 0.00336363417007 0)
(-0.175656468729 0.00220147833487 0)
(-0.174260334082 0.000693183887086 0)
(-0.171742454355 -0.00125493501001 0)
(-0.16786456677 -0.00371793476855 0)
(-0.162450910943 -0.00679222437172 0)
(-0.155156332584 -0.0105579463698 0)
(-0.145539488293 -0.015073144786 0)
(-0.133107857899 -0.0203344369619 0)
(-0.117404635716 -0.0262097161866 0)
(-0.0981967040631 -0.0323168179705 0)
(-0.075806236025 -0.0377610664181 0)
(-0.0514916498358 -0.0405616405071 0)
(-0.0274132058434 -0.036570847649 0)
(-0.00470488355094 -0.0174153709019 0)
(0.00925031365375 0.0135165247452 0)
(-0.00801733644599 0.0332822513251 0)
(-0.0135780140495 0.00794720474623 0)
(-0.0161001470177 -0.00261189403774 0)
(-0.0163134157459 -0.0046617577127 0)
(-0.0156765273708 -0.00430135188519 0)
(-0.0147943052585 -0.00348687733276 0)
(-0.0139109237819 -0.00273740115027 0)
(-0.0131047997652 -0.00214533402794 0)
(-0.0123952128496 -0.00169530664122 0)
(-0.0117805237021 -0.00135445012596 0)
(-0.0112519630822 -0.00109394963118 0)
(-0.0107989186495 -0.000892172346815 0)
(-0.0104110459143 -0.000733577129103 0)
(-0.0100790552694 -0.000607099076836 0)
(-0.00979492026918 -0.000504825440038 0)
(-0.00955183810132 -0.000421041288726 0)
(-0.00934409661801 -0.000351569059729 0)
(-0.00916691863957 -0.000293314257069 0)
(-0.00901631251513 -0.000243952565597 0)
(-0.00888893898632 -0.000201714617039 0)
(-0.00878199721576 -0.0001652370312 0)
(-0.00869313000612 -0.000133457670242 0)
(-0.00862034692952 -0.000105538860674 0)
(-0.00856196178541 -8.08093473817e-05 0)
(-0.00851653957133 -5.87197821124e-05 0)
(-0.00848285570651 -3.8806954668e-05 0)
(-0.00845987986908 -2.06487871051e-05 0)
(-0.00844669200979 -3.80905747482e-06 0)
(-0.00844225533271 1.18883168552e-05 0)
(-0.00844654520037 2.63977644267e-05 0)
(-0.00845887640339 3.98136259117e-05 0)
(-0.00847875278931 5.22878506227e-05 0)
(-0.00850573474904 6.39684037188e-05 0)
(-0.00853943863397 7.4992371802e-05 0)
(-0.00857953883792 8.54815221471e-05 0)
(-0.00862576432218 9.55417263114e-05 0)
(-0.00867789319554 0.000105264313844 0)
(-0.00873574736734 0.000114727929613 0)
(-0.0087991881018 0.000124000969392 0)
(-0.00886811211095 0.000133143953985 0)
(-0.00894244830377 0.000142211354036 0)
(-0.00902215500962 0.000151252972675 0)
(-0.00910721744266 0.000160314746321 0)
(-0.009197646106 0.000169439796464 0)
(-0.00929347539028 0.000178669244908 0)
(-0.00939476273721 0.000188042889543 0)
(-0.00950158799094 0.000197599806097 0)
(-0.0096140528709 0.000207378561969 0)
(-0.00973228108103 0.000217417795382 0)
(-0.00985641825091 0.000227756497875 0)
(-0.00998663237783 0.000238434273916 0)
(-0.0101231143493 0.000249491692358 0)
(-0.0102660784546 0.000260970237384 0)
(-0.0104157635089 0.000272912750704 0)
(-0.0105724337738 0.00028536373363 0)
(-0.0107363804168 0.000298369751335 0)
(-0.010907923147 0.000311980273082 0)
(-0.0110874116337 0.000326248030296 0)
(-0.0112752277056 0.000341229906045 0)
(-0.011471787383 0.000356987659254 0)
(-0.0116775433283 0.000373588133832 0)
(-0.0118929880159 0.000391104136637 0)
(-0.0121186566759 0.000409614619418 0)
(-0.0123551311512 0.000429204833729 0)
(-0.0126030440946 0.000449967114854 0)
(-0.0128630834186 0.000472000965674 0)
(-0.0131359981778 0.000495414104003 0)
(-0.013422604685 0.000520324261614 0)
(-0.0137237930754 0.000546860241998 0)
(-0.0140405348225 0.000575163514964 0)
(-0.0143738908946 0.000605390075359 0)
(-0.0147250218741 0.000637712598192 0)
(-0.0150951993451 0.000672323434568 0)
(-0.0154858174644 0.000709436429619 0)
(-0.0158984066291 0.000749288219508 0)
(-0.0163346507893 0.000792141802714 0)
(-0.0167964083431 0.000838291792707 0)
(-0.0172857356758 0.000888069489049 0)
(-0.0178049129213 0.000941847347059 0)
(-0.0183564743434 0.00100004385947 0)
(-0.0189432465043 0.00106313177253 0)
(-0.0195683948985 0.00113165097721 0)
(-0.020235478852 0.00120622346496 0)
(-0.0209485177445 0.00128757022227 0)
(-0.0217120759498 0.00137653526577 0)
(-0.0225313744442 0.00147412100609 0)
(-0.0234124357266 0.00158153571971 0)
(-0.0243622733175 0.00170025609308 0)
(-0.025389150543 0.00183211537619 0)
(-0.0265029503356 0.00197943733295 0)
(-0.0277157124849 0.00214524101484 0)
(-0.0290424047574 0.00233353177897 0)
(-0.0305019854585 0.00254966475611 0)
(-0.0321187364935 0.00280069316077 0)
(-0.0339235950152 0.00309543020232 0)
(-0.0359546590963 0.00344360791707 0)
(-0.0382551744193 0.00385308257051 0)
(-0.0408665067275 0.00432388309439 0)
(-0.0438139049525 0.00483881390118 0)
(-0.047085652888 0.00535304422116 0)
(-0.0506116132031 0.00578884479097 0)
(-0.0542519338908 0.0060428808506 0)
(-0.057805390071 0.00600852625007 0)
(-0.0610380686552 0.00560628307992 0)
(-0.0637231829361 0.00480930633411 0)
(-0.0656789459819 0.00365358792599 0)
(-0.0667936001747 0.00223055319774 0)
(-0.0670354934558 0.00066545955815 0)
(-0.0664634537642 -0.000916398504596 0)
(-0.0651788971916 -0.00240452238686 0)
(-0.0633907461488 -0.00368573262489 0)
(-0.0613038190027 -0.00469162978871 0)
(-0.0590864998381 -0.00539946169487 0)
(-0.0568676375215 -0.00581865382426 0)
(-0.0547427412741 -0.00597452439498 0)
(-0.0527852451482 -0.0058959191172 0)
(-0.0510571543763 -0.00560894059966 0)
(-0.0496174105612 -0.00513620966293 0)
(-0.0485286100227 -0.00449937338606 0)
(-0.0478629167101 -0.00371817275112 0)
(-0.0477059903776 -0.00279328019423 0)
(-0.0481674049824 -0.00167652922352 0)
(-0.0494819856474 -0.000314747510479 0)
(-0.0518229638121 0.00123884062592 0)
(-0.0547783664426 0.00280115667463 0)
(-0.0582508177247 0.00422819455454 0)
(-0.0621832999588 0.00545203511645 0)
(-0.0665286461108 0.00644466603448 0)
(-0.071233070181 0.00720792474809 0)
(-0.0762189038562 0.00776218291335 0)
(-0.0813832412235 0.00813517634343 0)
(-0.0866059922757 0.00835390552474 0)
(-0.0917631301179 0.00843915248269 0)
(-0.0967405511973 0.0084036569731 0)
(-0.101443289051 0.00825256138444 0)
(-0.105799654469 0.00798604756542 0)
(-0.109762237379 0.00760385413887 0)
(-0.113305583296 0.00711035721677 0)
(-0.116421985169 0.00651842249285 0)
(-0.119117356964 0.00585033255813 0)
(-0.121408289228 0.00513562069263 0)
(-0.123320104506 0.00440690607375 0)
(-0.124885267352 0.00369589947592 0)
(-0.126142144795 0.00303110926994 0)
(-0.127133938258 0.00243642317319 0)
(-0.12790720018 0.00193012762721 0)
(-0.128509947095 0.00152468834739 0)
(-0.128989784036 0.00122719698438 0)
(-0.12939236637 0.0010402325171 0)
(-0.129760220731 0.000962905533343 0)
(-0.130131850155 0.000991825178488 0)
(-0.130541347315 0.00112144352767 0)
(-0.13101874533 0.00134424708662 0)
(-0.131589951748 0.00165181621682 0)
(-0.132276230765 0.00203486535824 0)
(-0.133094053975 0.00248307777985 0)
(-0.134055024065 0.00298516780297 0)
(-0.135165851844 0.00352912469202 0)
(-0.136428417056 0.00410250820076 0)
(-0.137839925195 0.00469272048353 0)
(-0.139393146473 0.00528723143334 0)
(-0.141076744889 0.00587379152566 0)
(-0.142875719248 0.00644068731493 0)
(-0.144771949389 0.00697704741243 0)
(-0.146744807095 0.00747314442636 0)
(-0.148771782735 0.00792062196425 0)
(-0.150829106182 0.00831262695633 0)
(-0.152892361717 0.00864386464747 0)
(-0.154937087509 0.00891059203695 0)
(-0.156939322014 0.00911053681874 0)
(-0.158876056495 0.00924271061328 0)
(-0.160725576768 0.00930711030329 0)
(-0.162467686024 0.00930431971085 0)
(-0.164083785644 0.00923502092238 0)
(-0.165556797528 0.00909945290728 0)
(-0.166870932266 0.00889680424346 0)
(-0.168011281721 0.00862450407989 0)
(-0.168963215983 0.00827741877448 0)
(-0.169711565223 0.00784694046781 0)
(-0.170239499756 0.00731985238911 0)
(-0.170527083563 0.00667688202885 0)
(-0.17054983526 0.00589083592567 0)
(-0.170277522657 0.00492376597555 0)
(-0.169671410045 0.00372276365891 0)
(-0.168674661238 0.00221652314918 0)
(-0.167193345899 0.000317773084091 0)
(-0.165132065311 -0.0020640388229 0)
(-0.162510722066 -0.00500922351886 0)
(-0.159057223317 -0.00866640518492 0)
(-0.154508780997 -0.0132241604398 0)
(-0.148513982611 -0.0188535962605 0)
(-0.140655084782 -0.0256674179131 0)
(-0.130465758138 -0.0336639158027 0)
(-0.117495751833 -0.04262204614 0)
(-0.101447172166 -0.051910402256 0)
(-0.0823901850361 -0.060128128457 0)
(-0.0610061182076 -0.0644455533589 0)
(-0.0387350787103 -0.0595861101474 0)
(-0.0178400929337 -0.0371069058934 0)
(0.00562038061256 0.0135807835364 0)
(-0.00657956008751 0.0429588500196 0)
(-0.0117946956656 0.0130590516141 0)
(-0.0147447927429 -0.00101423515187 0)
(-0.0156016966892 -0.00459230939862 0)
(-0.0155551337242 -0.00478828267105 0)
(-0.0151548106826 -0.00414442211422 0)
(-0.0146387353121 -0.00341506134265 0)
(-0.0141050536027 -0.00278436883375 0)
(-0.0135949673513 -0.00227462886128 0)
(-0.0131254256268 -0.00186917202828 0)
(-0.012702063753 -0.00154623995472 0)
(-0.0123250264639 -0.00128708364414 0)
(-0.0119918617909 -0.00107706730659 0)
(-0.011699024659 -0.000905098616818 0)
(-0.0114426615105 -0.000762823118982 0)
(-0.0112190068398 -0.000643930454182 0)
(-0.0110245682835 -0.000543622909658 0)
(-0.0108561981438 -0.000458223150481 0)
(-0.0107111068118 -0.000384886383626 0)
(-0.0105868473034 -0.000321390017266 0)
(-0.0104812863344 -0.000265979866296 0)
(-0.0103925699954 -0.000217258253362 0)
(-0.0103190888393 -0.000174101359884 0)
(-0.0102594449635 -0.000135596595945 0)
(-0.0102124214394 -0.000100993737716 0)
(-0.0101769533619 -6.96659225476e-05 0)
(-0.0101521073627 -4.10710718437e-05 0)
(-0.0101370733427 -1.47027357316e-05 0)
(-0.0101309912922 9.87293473235e-06 0)
(-0.0101333223271 3.28467861599e-05 0)
(-0.0101436999407 5.4287417683e-05 0)
(-0.0101617395127 7.43575766613e-05 0)
(-0.0101871031961 9.32487240897e-05 0)
(-0.010219481982 0.000111147873469 0)
(-0.0102586033873 0.000128225683524 0)
(-0.0103042330722 0.000144634058544 0)
(-0.0103561746266 0.000160507193871 0)
(-0.0104142677916 0.000175963451559 0)
(-0.0104783863208 0.000191107692293 0)
(-0.0105484358849 0.000206033789116 0)
(-0.0106243521708 0.000220826784823 0)
(-0.010706099241 0.000235564959915 0)
(-0.0107936677766 0.000250321189934 0)
(-0.0108870738763 0.000265164154553 0)
(-0.0109863580236 0.000280159482393 0)
(-0.0110915844504 0.000295370601842 0)
(-0.0112028408225 0.000310859791933 0)
(-0.011320237908 0.000326688717552 0)
(-0.0114439096728 0.00034291906979 0)
(-0.0115740134091 0.000359613202271 0)
(-0.0117107302056 0.000376834424629 0)
(-0.0118542656692 0.000394647664199 0)
(-0.0120048506736 0.000413119746966 0)
(-0.012162742557 0.000432319864205 0)
(-0.0123282263793 0.000452320295457 0)
(-0.0125016164641 0.000473196832641 0)
(-0.0126832583157 0.000495029927093 0)
(-0.0128735304403 0.000517905545658 0)
(-0.0130728465149 0.000541915873493 0)
(-0.0132816579492 0.000567160662059 0)
(-0.0135004565761 0.000593747704876 0)
(-0.0137297777983 0.000621793647146 0)
(-0.0139702044137 0.000651425217254 0)
(-0.0142223708685 0.000682779729036 0)
(-0.014486968004 0.000716006365629 0)
(-0.0147647486345 0.000751267405399 0)
(-0.0150565335785 0.00078873919066 0)
(-0.0153632185875 0.000828614699786 0)
(-0.015685782707 0.000871106247297 0)
(-0.0160252969379 0.000916447819517 0)
(-0.0163829336809 0.00096489804555 0)
(-0.0167599782659 0.00101674346833 0)
(-0.017157842359 0.00107230300352 0)
(-0.0175780794476 0.00113193317792 0)
(-0.0180224018502 0.00119603206835 0)
(-0.0184926996171 0.00126504357408 0)
(-0.0189910645937 0.00133946493032 0)
(-0.0195198201599 0.00141985696495 0)
(-0.0200815550422 0.00150685573214 0)
(-0.0206791626946 0.00160118546561 0)
(-0.0213158886689 0.00170367410244 0)
(-0.0219953889455 0.00181527480359 0)
(-0.0227218029447 0.00193709542244 0)
(-0.023499842758 0.00207043474359 0)
(-0.0243349038538 0.00221682882009 0)
(-0.0252332116216 0.00237811827503 0)
(-0.026202019972 0.00255654807688 0)
(-0.0272498795017 0.00275491147529 0)
(-0.0283870064922 0.00297675747644 0)
(-0.0296258035887 0.00322669428179 0)
(-0.0309816005984 0.00351082973588 0)
(-0.0324736848951 0.00383736526231 0)
(-0.034126623027 0.00421724963842 0)
(-0.0359716553529 0.00466452918796 0)
(-0.0380474664154 0.0051955318718 0)
(-0.0403988341839 0.00582536299343 0)
(-0.0430708029473 0.00655985242086 0)
(-0.0460960017167 0.00738216104203 0)
(-0.0494748852775 0.00823681147169 0)
(-0.0531534831244 0.00901914577325 0)
(-0.0570083474981 0.00958082318749 0)
(-0.0608489706692 0.00975682519953 0)
(-0.0644414636401 0.00940754893436 0)
(-0.0675477085032 0.00845990253871 0)
(-0.0699683844769 0.00693168975037 0)
(-0.0715785206058 0.00493229522657 0)
(-0.0723479860242 0.00264174563705 0)
(-0.0723461799417 0.000273937683071 0)
(-0.071733245871 -0.00196513870721 0)
(-0.070707222382 -0.00389986799357 0)
(-0.0694786866903 -0.00542212285349 0)
(-0.0682031255722 -0.0065037818995 0)
(-0.0669908497112 -0.00716838003789 0)
(-0.0659192144308 -0.00746128359083 0)
(-0.0650468014356 -0.00742896084278 0)
(-0.0644262033879 -0.00710782182374 0)
(-0.0641138364475 -0.00652040771612 0)
(-0.0641769470683 -0.00567514346211 0)
(-0.0646961130281 -0.00456456350869 0)
(-0.0657603009984 -0.00315909854161 0)
(-0.0674707596505 -0.00141767630174 0)
(-0.0700152414206 0.000636710661543 0)
(-0.0730955860278 0.00279941107994 0)
(-0.0763481837856 0.00484984823263 0)
(-0.0798976906256 0.00673959645518 0)
(-0.0837592388711 0.00845687827085 0)
(-0.0879125795996 0.00996011701538 0)
(-0.0923129359544 0.0112041946594 0)
(-0.0968961856022 0.0121616603162 0)
(-0.101581325462 0.0128275517222 0)
(-0.10627360241 0.013214582281 0)
(-0.110870197442 0.0133449877252 0)
(-0.115268643568 0.0132432089668 0)
(-0.119375981309 0.0129319450267 0)
(-0.123116287231 0.0124316113981 0)
(-0.126435523553 0.0117618102983 0)
(-0.129303648206 0.0109438533392 0)
(-0.131713974602 0.0100033908793 0)
(-0.133680260961 0.00897180384482 0)
(-0.135232538945 0.00788581026901 0)
(-0.136412981771 0.00678571748474 0)
(-0.137271887357 0.00571212119153 0)
(-0.137863248112 0.00470201237417 0)
(-0.138241387838 0.00378709669787 0)
(-0.138459327597 0.00299295634699 0)
(-0.138567240149 0.00233746974001 0)
(-0.138610615392 0.00183045092187 0)
(-0.138628872914 0.00147454156291 0)
(-0.138654688993 0.00126709009244 0)
(-0.138713946003 0.00120193844269 0)
(-0.138826400015 0.00127073675658 0)
(-0.139006798279 0.00146347735081 0)
(-0.139265893759 0.00176875527122 0)
(-0.139611136958 0.00217398233696 0)
(-0.140046972251 0.00266551650721 0)
(-0.140574937809 0.00322876803522 0)
(-0.141193717156 0.00384834462182 0)
(-0.141899179455 0.00450826985429 0)
(-0.14268446118 0.00519227231045 0)