/*--------------------------------*- C++ -*----------------------------------*\
  =========                 |
  \\      /  F ield         | OpenFOAM: The Open Source CFD Toolbox
   \\    /   O peration     | Website:  https://openfoam.org
    \\  /    A nd           | Version:  12
     \\/     M anipulation  |
\*---------------------------------------------------------------------------*/
FoamFile
{
    format      ascii;
    class       volScalarField;
    location    "10";
    object      p;
}
// * * * * * * * * * * * * * * * * * * * * * * * * * * * * * * * * * * * * * //

dimensions      [1 -1 -2 0 0 0 0];

internalField   nonuniform List<scalar> 
40000
(
100119.114781
100119.115119
100119.11534
100119.115453
100119.115508
100119.115549
100119.115593
100119.115642
100119.115698
100119.115766
100119.115845
100119.115937
100119.116041
100119.116157
100119.116286
100119.116428
100119.116582
100119.116746
100119.11692
100119.1171
100119.117283
100119.117468
100119.117649
100119.117824
100119.117988
100119.118137
100119.118273
100119.118392
100119.118486
100119.118538
100119.118548
100119.118522
100119.118461
100119.118371
100119.118257
100119.118125
100119.117981
100119.117831
100119.117679
100119.117528
100119.117382
100119.117245
100119.117121
100119.117014
100119.116927
100119.11686
100119.116814
100119.116786
100119.116775
100119.116782
100119.116808
100119.116849
100119.116901
100119.116958
100119.117017
100119.117076
100119.117133
100119.117189
100119.117243
100119.117296
100119.11735
100119.117402
100119.117455
100119.117508
100119.117562
100119.117617
100119.117674
100119.117732
100119.117789
100119.117845
100119.117899
100119.117951
100119.118002
100119.11805
100119.118098
100119.118145
100119.11819
100119.118231
100119.118267
100119.118297
100119.118321
100119.118335
100119.118341
100119.118335
100119.118318
100119.118289
100119.118248
100119.118197
100119.118136
100119.118067
100119.117994
100119.11792
100119.117851
100119.117788
100119.117729
100119.117677
100119.117642
100119.117621
100119.117615
100119.117628
100119.117658
100119.117702
100119.117755
100119.11781
100119.11786
100119.117901
100119.11793
100119.117943
100119.117943
100119.117926
100119.11788
100119.117795
100119.117669
100119.117501
100119.11729
100119.117042
100119.116763
100119.116462
100119.11615
100119.115835
100119.115521
100119.115244
100119.115044
100119.114918
100119.114866
100119.114882
100119.114934
100119.114997
100119.115053
100119.115092
100119.115116
100119.115134
100119.115151
100119.115164
100119.115171
100119.115167
100119.115147
100119.115107
100119.115039
100119.114923
100119.114774
100119.114614
100119.114441
100119.114256
100119.114064
100119.113865
100119.113658
100119.113447
100119.113232
100119.113008
100119.112775
100119.112536
100119.112297
100119.112063
100119.11184
100119.111635
100119.111459
100119.111322
100119.111233
100119.111195
100119.111204
100119.111248
100119.111316
100119.111396
100119.111474
100119.111538
100119.11158
100119.111593
100119.111573
100119.111517
100119.111426
100119.111302
100119.111152
100119.110982
100119.110798
100119.110611
100119.110428
100119.110259
100119.110115
100119.110005
100119.109943
100119.109942
100119.11002
100119.110199
100119.110512
100119.111005
100119.111747
100119.112844
100119.114463
100119.116813
100119.120113
100119.124713
100119.130977
100119.139228
100119.149558
100119.161443
100119.173214
100119.182011
100119.185374
100119.183825
100119.057179
100119.057113
100119.05714
100119.05717
100119.057191
100119.057216
100119.057247
100119.05729
100119.057346
100119.057413
100119.057493
100119.057585
100119.057689
100119.057806
100119.057936
100119.058079
100119.058233
100119.058398
100119.058571
100119.058748
100119.058923
100119.059091
100119.059249
100119.059394
100119.059525
100119.059639
100119.059735
100119.059805
100119.059842
100119.059844
100119.059808
100119.059735
100119.059629
100119.059496
100119.059344
100119.059179
100119.059006
100119.05883
100119.058654
100119.058483
100119.058319
100119.058167
100119.058029
100119.057911
100119.057814
100119.057741
100119.057684
100119.057644
100119.057624
100119.057623
100119.057639
100119.057668
100119.057706
100119.057746
100119.057787
100119.057824
100119.057858
100119.057889
100119.05792
100119.05795
100119.057979
100119.058009
100119.058037
100119.058066
100119.058094
100119.058125
100119.058158
100119.058195
100119.058232
100119.058269
100119.058303
100119.058337
100119.058369
100119.0584
100119.058432
100119.058463
100119.058491
100119.058517
100119.058539
100119.058556
100119.058567
100119.05857
100119.058564
100119.058547
100119.05852
100119.058481
100119.058431
100119.05837
100119.0583
100119.058224
100119.058144
100119.058066
100119.058
100119.057944
100119.057889
100119.057831
100119.057776
100119.057737
100119.05772
100119.057726
100119.057753
100119.057797
100119.057851
100119.057906
100119.057957
100119.057998
100119.058026
100119.05804
100119.058042
100119.058019
100119.057965
100119.057876
100119.057748
100119.057577
100119.057363
100119.057112
100119.056833
100119.05654
100119.056253
100119.055978
100119.055697
100119.055394
100119.055109
100119.054913
100119.054835
100119.054852
100119.054922
100119.055002
100119.05507
100119.055119
100119.055153
100119.055177
100119.055198
100119.055217
100119.055229
100119.055227
100119.055206
100119.055161
100119.055085
100119.054981
100119.054841
100119.054669
100119.054481
100119.054285
100119.054082
100119.053875
100119.053661
100119.053442
100119.053218
100119.052988
100119.052747
100119.052498
100119.052247
100119.052001
100119.051765
100119.05155
100119.051367
100119.051227
100119.05114
100119.051109
100119.051129
100119.051188
100119.051271
100119.051365
100119.051453
100119.051525
100119.051571
100119.051584
100119.051561
100119.051501
100119.051403
100119.051271
100119.051111
100119.05093
100119.050735
100119.050536
100119.050342
100119.050163
100119.050007
100119.049886
100119.04981
100119.04979
100119.049841
100119.049981
100119.050234
100119.050638
100119.05125
100119.052152
100119.053475
100119.055419
100119.058261
100119.062275
100119.067807
100119.075179
100119.084519
100119.095431
100119.106586
100119.115663
100119.1203
100119.120157
100118.999095
100118.998933
100118.998894
100118.998876
100118.998869
100118.998872
100118.99889
100118.998926
100118.998977
100118.999041
100118.999119
100118.999209
100118.999311
100118.999426
100118.999552
100118.999688
100118.999832
100118.999981
100119.000132
100119.000279
100119.000415
100119.000538
100119.000647
100119.00074
100119.000816
100119.000873
100119.00091
100119.000915
100119.000888
100119.00083
100119.000739
100119.000618
100119.000473
100119.000309
100119.000133
100118.999948
100118.999759
100118.999569
100118.999382
100118.999203
100118.999034
100118.998879
100118.99874
100118.998626
100118.998517
100118.998422
100118.998352
100118.998305
100118.998278
100118.99827
100118.998277
100118.998294
100118.998317
100118.998341
100118.998363
100118.99838
100118.998393
100118.998401
100118.998408
100118.998414
100118.99842
100118.998427
100118.998437
100118.998449
100118.998462
100118.998479
100118.9985
100118.998524
100118.998551
100118.998576
100118.998601
100118.998625
100118.998649
100118.998673
100118.998696
100118.998718
100118.998739
100118.998758
100118.998774
100118.998786
100118.998791
100118.998789
100118.998779
100118.998759
100118.998729
100118.998688
100118.998636
100118.998574
100118.998504
100118.998427
100118.998345
100118.998261
100118.998175
100118.998094
100118.99803
100118.99798
100118.997939
100118.997908
100118.997893
100118.997897
100118.997917
100118.997952
100118.997996
100118.998044
100118.998089
100118.998127
100118.998154
100118.998168
100118.998164
100118.998139
100118.998091
100118.998011
100118.997893
100118.997735
100118.997536
100118.9973
100118.997035
100118.996746
100118.996431
100118.996104
100118.995809
100118.995551
100118.995324
100118.995147
100118.995044
100118.995007
100118.99501
100118.995026
100118.99504
100118.99505
100118.995062
100118.99508
100118.995109
100118.995148
100118.99519
100118.995231
100118.99526
100118.99527
100118.995249
100118.995198
100118.995111
100118.994984
100118.994829
100118.99465
100118.994451
100118.994234
100118.993997
100118.993742
100118.993471
100118.993183
100118.992882
100118.992575
100118.992268
100118.99197
100118.99169
100118.991442
100118.99124
100118.991098
100118.991028
100118.991035
100118.99111
100118.991238
100118.991393
100118.991553
100118.991698
100118.991814
100118.991889
100118.991918
100118.991898
100118.99183
100118.991716
100118.991564
100118.991379
100118.991171
100118.99095
100118.990727
100118.990511
100118.990313
100118.990141
100118.990004
100118.989909
100118.989867
100118.989886
100118.989978
100118.990157
100118.990447
100118.990893
100118.991574
100118.992588
100118.994088
100118.996288
100118.999471
100119.003979
100119.010161
100119.018223
100119.027957
100119.038412
100119.047737
100119.053537
100119.054286
100118.940848
100118.940679
100118.940608
100118.940562
100118.94053
100118.940516
100118.940522
100118.940547
100118.940588
100118.940644
100118.940715
100118.940798
100118.940893
100118.940998
100118.941111
100118.941229
100118.941347
100118.941463
100118.941569
100118.941658
100118.941727
100118.94178
100118.941819
100118.941844
100118.941853
100118.941845
100118.941816
100118.941762
100118.941681
100118.941574
100118.941442
100118.941288
100118.941118
100118.940937
100118.940749
100118.940557
100118.940363
100118.940171
100118.939984
100118.939805
100118.939637
100118.939477
100118.939324
100118.939182
100118.93907
100118.938978
100118.938906
100118.938853
100118.938817
100118.938796
100118.938787
100118.938787
100118.938791
100118.938796
100118.938799
100118.9388
100118.938796
100118.938789
100118.93878
100118.938771
100118.938763
100118.938759
100118.938759
100118.938762
100118.938768
100118.938778
100118.938792
100118.938811
100118.938833
100118.938857
100118.938881
100118.938905
100118.938928
100118.938951
100118.938973
100118.938994
100118.939014
100118.939032
100118.939046
100118.939056
100118.93906
100118.939057
100118.939046
100118.939027
100118.938998
100118.93896
100118.938911
100118.938853
100118.938787
100118.938716
100118.938632
100118.938547
100118.938466
100118.938391
100118.938322
100118.938262
100118.938209
100118.938167
100118.93814
100118.938129
100118.938135
100118.938155
100118.938187
100118.938225
100118.938265
100118.938302
100118.938332
100118.93835
100118.938353
100118.938341
100118.93831
100118.93825
100118.938157
100118.938029
100118.937862
100118.937656
100118.937416
100118.937146
100118.936859
100118.936566
100118.936275
100118.935999
100118.935748
100118.935534
100118.935369
100118.935249
100118.935161
100118.935091
100118.935033
100118.934989
100118.934967
100118.934976
100118.93502
100118.935098
100118.935202
100118.935318
100118.935433
100118.935531
100118.935596
100118.935622
100118.9356
100118.935533
100118.935424
100118.935274
100118.935084
100118.934854
100118.934585
100118.934282
100118.933949
100118.933592
100118.933218
100118.932838
100118.932462
100118.932102
100118.931769
100118.931481
100118.931256
100118.931115
100118.931072
100118.931134
100118.931293
100118.931519
100118.931773
100118.932019
100118.932234
100118.932401
100118.93251
100118.932555
100118.932539
100118.932462
100118.932332
100118.932155
100118.931943
100118.931707
100118.931461
100118.931216
100118.930983
100118.930772
100118.93059
100118.930442
100118.930335
100118.930274
100118.930263
100118.930305
100118.930404
100118.930563
100118.930808
100118.931221
100118.931866
100118.932832
100118.934301
100118.936524
100118.939834
100118.94461
100118.951167
100118.959525
100118.96911
100118.978464
100118.985171
100118.986622
100118.882513
100118.882353
100118.88227
100118.882207
100118.882163
100118.882136
100118.882129
100118.882142
100118.882171
100118.882217
100118.882275
100118.882345
100118.882424
100118.882509
100118.882595
100118.882679
100118.882754
100118.882815
100118.882854
100118.882868
100118.882862
100118.88284
100118.88281
100118.88277
100118.882718
100118.882652
100118.882573
100118.882469
100118.882346
100118.882203
100118.882044
100118.881871
100118.88169
100118.881502
100118.881309
100118.881113
100118.880917
100118.880721
100118.880528
100118.880336
100118.880149
100118.87998
100118.879831
100118.879698
100118.879583
100118.879485
100118.879404
100118.879338
100118.879287
100118.879249
100118.879221
100118.8792
100118.879184
100118.879171
100118.879157
100118.879143
100118.87913
100118.879116
100118.879104
100118.879095
100118.879089
100118.879088
100118.87909
100118.879096
100118.879106
100118.879121
100118.87914
100118.879163
100118.879188
100118.879214
100118.879241
100118.879268
100118.879294
100118.87932
100118.879342
100118.879364
100118.879383
100118.8794
100118.879413
100118.879421
100118.879425
100118.879422
100118.879412
100118.879395
100118.87937
100118.879337
100118.879294
100118.879241
100118.879179
100118.879106
100118.879035
100118.878958
100118.87888
100118.878803
100118.878731
100118.878663
100118.878602
100118.878549
100118.878507
100118.878478
100118.878462
100118.878462
100118.878475
100118.878499
100118.878531
100118.878567
100118.878603
100118.878633
100118.878654
100118.878664
100118.878659
100118.878632
100118.878576
100118.878485
100118.878353
100118.878179
100118.877969
100118.877729
100118.877465
100118.877187
100118.876901
100118.876614
100118.876336
100118.876074
100118.875836
100118.875625
100118.875439
100118.875279
100118.875149
100118.875057
100118.875015
100118.875034
100118.875115
100118.875253
100118.875431
100118.875632
100118.875836
100118.876026
100118.876182
100118.87628
100118.876324
100118.876312
100118.876242
100118.876111
100118.87592
100118.875669
100118.875363
100118.875008
100118.874614
100118.874192
100118.873752
100118.873307
100118.872871
100118.87246
100118.872089
100118.871777
100118.871547
100118.871426
100118.871434
100118.871575
100118.871837
100118.872173
100118.872518
100118.872828
100118.873092
100118.873291
100118.873414
100118.873462
100118.873437
100118.873345
100118.873193
100118.872994
100118.87276
100118.872505
100118.872244
100118.871989
100118.871753
100118.871542
100118.871364
100118.871222
100118.871118
100118.871057
100118.871039
100118.871057
100118.871108
100118.871193
100118.871333
100118.871534
100118.871834
100118.872317
100118.873114
100118.874428
100118.876556
100118.879889
100118.884829
100118.89161
100118.900005
100118.908928
100118.91608
100118.91805
100118.824111
100118.823963
100118.823878
100118.823806
100118.823753
100118.823714
100118.823694
100118.823693
100118.82371
100118.823742
100118.823784
100118.823835
100118.82389
100118.823945
100118.823992
100118.824027
100118.824043
100118.824034
100118.823994
100118.82393
100118.823849
100118.823759
100118.823665
100118.823567
100118.823464
100118.823352
100118.823225
100118.823091
100118.822943
100118.822782
100118.82261
100118.822431
100118.822245
100118.822054
100118.821858
100118.821657
100118.821454
100118.821248
100118.821046
100118.820854
100118.820674
100118.820506
100118.820351
100118.820211
100118.820086
100118.819977
100118.819882
100118.819803
100118.819738
100118.819686
100118.819644
100118.819611
100118.819584
100118.819561
100118.819542
100118.819524
100118.819508
100118.819494
100118.819484
100118.819478
100118.819476
100118.81948
100118.819488
100118.819502
100118.819521
100118.819546
100118.819574
100118.819604
100118.819636
100118.819669
100118.819702
100118.819735
100118.819767
100118.819797
100118.819827
100118.819852
100118.819874
100118.819892
100118.819907
100118.819917
100118.819922
100118.819922
100118.819916
100118.819904
100118.819885
100118.819858
100118.819823
100118.819778
100118.819726
100118.819666
100118.819599
100118.819526
100118.819449
100118.819368
100118.819287
100118.819206
100118.81913
100118.819059
100118.818998
100118.818949
100118.818915
100118.818896
100118.818895
100118.818909
100118.818936
100118.818974
100118.819019
100118.819066
100118.81911
100118.819147
100118.819171
100118.819173
100118.819147
100118.819085
100118.818986
100118.818851
100118.818679
100118.818469
100118.818226
100118.817954
100118.81766
100118.817352
100118.817039
100118.816728
100118.816427
100118.816145
100118.815889
100118.815668
100118.815494
100118.815379
100118.815341
100118.81539
100118.815525
100118.815732
100118.815983
100118.816263
100118.816552
100118.816803
100118.816988
100118.817115
100118.817189
100118.817204
100118.817151
100118.817028
100118.81683
100118.816559
100118.816219
100118.815821
100118.815379
100118.814905
100118.814415
100118.813926
100118.813457
100118.813026
100118.81265
100118.812347
100118.812144
100118.812069
100118.81214
100118.812365
100118.812734
100118.813188
100118.813635
100118.814012
100118.814287
100118.814465
100118.814555
100118.814574
100118.814523
100118.814406
100118.814233
100118.814016
100118.813768
100118.813505
100118.813241
100118.812989
100118.81276
100118.812561
100118.812398
100118.812271
100118.812181
100118.812129
100118.812114
100118.812124
100118.81216
100118.812216
100118.812277
100118.812334
100118.812413
100118.812565
100118.812873
100118.813478
100118.814621
100118.816665
100118.820057
100118.825185
100118.832119
100118.840147
100118.847254
100118.849531
100118.765643
100118.765508
100118.765423
100118.765347
100118.765287
100118.765239
100118.765207
100118.765193
100118.765196
100118.765211
100118.765234
100118.76526
100118.765285
100118.765301
100118.7653
100118.765277
100118.765225
100118.765139
100118.765022
100118.764884
100118.764735
100118.764586
100118.764441
100118.764299
100118.764159
100118.764017
100118.763867
100118.763708
100118.763541
100118.763369
100118.763191
100118.763007
100118.762816
100118.762617
100118.762412
100118.762203
100118.761994
100118.761789
100118.76159
100118.761398
100118.761214
100118.761041
100118.760881
100118.760735
100118.760603
100118.760485
100118.760382
100118.760293
100118.760218
100118.760157
100118.760107
100118.760067
100118.760036
100118.760012
100118.759994
100118.759982
100118.759974
100118.759971
100118.759972
100118.759977
100118.759987
100118.760001
100118.760021
100118.760045
100118.760073
100118.760105
100118.76014
100118.760176
100118.760215
100118.760254
100118.760293
100118.760331
100118.760369
100118.760403
100118.760433
100118.760458
100118.76048
100118.760499
100118.760514
100118.760526
100118.760534
100118.760536
100118.760535
100118.760527
100118.760513
100118.760492
100118.760462
100118.76043
100118.760387
100118.760335
100118.760274
100118.760204
100118.760127
100118.760044
100118.759957
100118.759869
100118.759782
100118.7597
100118.759627
100118.759567
100118.759522
100118.759495
100118.759486
100118.759496
100118.759522
100118.759564
100118.759619
100118.759683
100118.759746
100118.759795
100118.759829
100118.759843
100118.759834
100118.759801
100118.759736
100118.759631
100118.759483
100118.759292
100118.759061
100118.758791
100118.758489
100118.758163
100118.757821
100118.757473
100118.75713
100118.756807
100118.756516
100118.756271
100118.756088
100118.755985
100118.755981
100118.756086
100118.756291
100118.756581
100118.75692
100118.757252
100118.757547
100118.757794
100118.757978
100118.758105
100118.758176
100118.758181
100118.758116
100118.757976
100118.757758
100118.757463
100118.757097
100118.756671
100118.756201
100118.755703
100118.755194
100118.754696
100118.754227
100118.753808
100118.753456
100118.753189
100118.753032
100118.753023
100118.753192
100118.75356
100118.754008
100118.754452
100118.754859
100118.755197
100118.755455
100118.755641
100118.75575
100118.755767
100118.755704
100118.755578
100118.755399
100118.755179
100118.754933
100118.754677
100118.754424
100118.754186
100118.753976
100118.753798
100118.753656
100118.753549
100118.753473
100118.753433
100118.753438
100118.753485
100118.753538
100118.753573
100118.753583
100118.75357
100118.753545
100118.753526
100118.753555
100118.753714
100118.75416
100118.755198
100118.757254
100118.760798
100118.766131
100118.772908
100118.779517
100118.781874
100118.707116
100118.706992
100118.706908
100118.706831
100118.706766
100118.706711
100118.706669
100118.706642
100118.706629
100118.706626
100118.706627
100118.706626
100118.706615
100118.706588
100118.706535
100118.70645
100118.706327
100118.706165
100118.705972
100118.705763
100118.705552
100118.705352
100118.705164
100118.704987
100118.704818
100118.704654
100118.704489
100118.704319
100118.704142
100118.703959
100118.703772
100118.703581
100118.703386
100118.703185
100118.70298
100118.702773
100118.702567
100118.702363
100118.702164
100118.70197
100118.701784
100118.701608
100118.701444
100118.701294
100118.701158
100118.701036
100118.70093
100118.700838
100118.70076
100118.700696
100118.700645
100118.700608
100118.700582
100118.700566
100118.700559
100118.70056
100118.700567
100118.700581
100118.7006
100118.700622
100118.700649
100118.700679
100118.700713
100118.70075
100118.700789
100118.700829
100118.700869
100118.700908
100118.700949
100118.700992
100118.701034
100118.701074
100118.701109
100118.70114
100118.701167
100118.70119
100118.70121
100118.701227
100118.701242
100118.701253
100118.70126
100118.701264
100118.701264
100118.701259
100118.70125
100118.701235
100118.701215
100118.701186
100118.701149
100118.701101
100118.701044
100118.700977
100118.700901
100118.700818
100118.700731
100118.700642
100118.700554
100118.70047
100118.700396
100118.700334
100118.700288
100118.700261
100118.700254
100118.700267
100118.700297
100118.70034
100118.700394
100118.700457
100118.700518
100118.70057
100118.700606
100118.700626
100118.700626
100118.7006
100118.700541
100118.700444
100118.700304
100118.700122
100118.699896
100118.69963
100118.699328
100118.698997
100118.698644
100118.698281
100118.697923
100118.697586
100118.697287
100118.697046
100118.696882
100118.696815
100118.696865
100118.697048
100118.697348
100118.697689
100118.698026
100118.698347
100118.698634
100118.698877
100118.69907
100118.69919
100118.699234
100118.699208
100118.699114
100118.698946
100118.698703
100118.698384
100118.697997
100118.697556
100118.697079
100118.696585
100118.696086
100118.695602
100118.695156
100118.694767
100118.694455
100118.694233
100118.694142
100118.694242
100118.694526
100118.694892
100118.695307
100118.695716
100118.696084
100118.696393
100118.696634
100118.696803
100118.696904
100118.696935
100118.696891
100118.69678
100118.696622
100118.696426
100118.696205
100118.695973
100118.695745
100118.695533
100118.695346
100118.69519
100118.695066
100118.694975
100118.694923
100118.69491
100118.694924
100118.694954
100118.694986
100118.695006
100118.695005
100118.694985
100118.694948
100118.694907
100118.694867
100118.694837
100118.694891
100118.695263
100118.696309
100118.698496
100118.702269
100118.707613
100118.713376
100118.715607
100118.648533
100118.648419
100118.648339
100118.648262
100118.648192
100118.648132
100118.648081
100118.648042
100118.648013
100118.64799
100118.647966
100118.647935
100118.647888
100118.647816
100118.647711
100118.647564
100118.647372
100118.647137
100118.646872
100118.646597
100118.64633
100118.646084
100118.645861
100118.645657
100118.645467
100118.645286
100118.645112
100118.644938
100118.644762
100118.644582
100118.644394
100118.644201
100118.644004
100118.643803
100118.643599
100118.643393
100118.643188
100118.642985
100118.642787
100118.642595
100118.64241
100118.642235
100118.642069
100118.641916
100118.641777
100118.641654
100118.641547
100118.641457
100118.641385
100118.64133
100118.641292
100118.64127
100118.64126
100118.641263
100118.641276
100118.641298
100118.641327
100118.641363
100118.641403
100118.641448
100118.641495
100118.641542
100118.641589
100118.641637
100118.641685
100118.641731
100118.641776
100118.64182
100118.641862
100118.641901
100118.641936
100118.641969
100118.641999
100118.642024
100118.642045
100118.642062
100118.642074
100118.642084
100118.642091
100118.642096
100118.642097
100118.642095
100118.642088
100118.642083
100118.642074
100118.642061
100118.642042
100118.642015
100118.64198
100118.641935
100118.641881
100118.641817
100118.641745
100118.641666
100118.641583
100118.641499
100118.641415
100118.641337
100118.641268
100118.641212
100118.641176
100118.641161
100118.641169
100118.641195
100118.641237
100118.64129
100118.641348
100118.641407
100118.641462
100118.641503
100118.641526
100118.641532
100118.641516
100118.641473
100118.641399
100118.641289
100118.641141
100118.640953
100118.640726
100118.640461
100118.64016
100118.639831
100118.639479
100118.639116
100118.63876
100118.638431
100118.638148
100118.637929
100118.637794
100118.637764
100118.637876
100118.638125
100118.638447
100118.638793
100118.639132
100118.639449
100118.639731
100118.639966
100118.640148
100118.64027
100118.640312
100118.640272
100118.640159
100118.639971
100118.63971
100118.639381
100118.638988
100118.638546
100118.638076
100118.637596
100118.637119
100118.636667
100118.636261
100118.635923
100118.635668
100118.635522
100118.635533
100118.635695
100118.635958
100118.636288
100118.636651
100118.637009
100118.637334
100118.637611
100118.637828
100118.637982
100118.638072
100118.638105
100118.638083
100118.638004
100118.637881
100118.637722
100118.637541
100118.637348
100118.637156
100118.636975
100118.636814
100118.63668
100118.636574
100118.636507
100118.636469
100118.636453
100118.636456
100118.63647
100118.636487
100118.636498
100118.636498
100118.636487
100118.636466
100118.636436
100118.636391
100118.636337
100118.636293
100118.636325
100118.636727
100118.637902
100118.64034
100118.64427
100118.648991
100118.650942
100118.589898
100118.589793
100118.589714
100118.589637
100118.589566
100118.589503
100118.589446
100118.589396
100118.589351
100118.589307
100118.589258
100118.589196
100118.589111
100118.588993
100118.588835
100118.588628
100118.588372
100118.588072
100118.587744
100118.587412
100118.587096
100118.58681
100118.586556
100118.586331
100118.586126
100118.585937
100118.585758
100118.585583
100118.585409
100118.585233
100118.58505
100118.584861
100118.584666
100118.584467
100118.584264
100118.584061
100118.583857
100118.583656
100118.583459
100118.583269
100118.583085
100118.582911
100118.582747
100118.582597
100118.582463
100118.582347
100118.582248
100118.582168
100118.582109
100118.58207
100118.582049
100118.582045
100118.582056
100118.582082
100118.582118
100118.582165
100118.58222
100118.582281
100118.582347
100118.582415
100118.582483
100118.58255
100118.582613
100118.582672
100118.582726
100118.582778
100118.582827
100118.582874
100118.582918
100118.582957
100118.582991
100118.583019
100118.583042
100118.58306
100118.583073
100118.583081
100118.583085
100118.583085
100118.583083
100118.583077
100118.583068
100118.583055
100118.583042
100118.583026
100118.583006
100118.582983
100118.582954
100118.58292
100118.58288
100118.582833
100118.582779
100118.582716
100118.582644
100118.582568
100118.582489
100118.58241
100118.582334
100118.582264
100118.582204
100118.582159
100118.582136
100118.582137
100118.582165
100118.582212
100118.582264
100118.582319
100118.582377
100118.582431
100118.582477
100118.582508
100118.582521
100118.582511
100118.582476
100118.582411
100118.582313
100118.582179
100118.58201
100118.581806
100118.581569
100118.581298
100118.580997
100118.580667
100118.58032
100118.579967
100118.579627
100118.579319
100118.579063
100118.578876
100118.578777
100118.578795
100118.578959
100118.579226
100118.579549
100118.57989
100118.580224
100118.580534
100118.580809
100118.581037
100118.581211
100118.581327
100118.581375
100118.581342
100118.581229
100118.581046
100118.580792
100118.580472
100118.580096
100118.579675
100118.579228
100118.578779
100118.578342
100118.577937
100118.577584
100118.577302
100118.577108
100118.577035
100118.577091
100118.577246
100118.577474
100118.577755
100118.57806
100118.578365
100118.578647
100118.57889
100118.579083
100118.579222
100118.579308
100118.579343
100118.579332
100118.579278
100118.579181
100118.57906
100118.578922
100118.578768
100118.578614
100118.578469
100118.578337
100118.578228
100118.578143
100118.578084
100118.578047
100118.578026
100118.57802
100118.578023
100118.578028
100118.578032
100118.578031
100118.578026
100118.578016
100118.578001
100118.577978
100118.577947
100118.577905
100118.577865
100118.577917
100118.578444
100118.579887
100118.582594
100118.586243
100118.587831
100118.531213
100118.531115
100118.531037
100118.530961
100118.530889
100118.530823
100118.530762
100118.530704
100118.530646
100118.530583
100118.530509
100118.530416
100118.530294
100118.530134
100118.529925
100118.529663
100118.529348
100118.52899
100118.528606
100118.528222
100118.527863
100118.527541
100118.527259
100118.527013
100118.526795
100118.526597
100118.526414
100118.526239
100118.526067
100118.525895
100118.525717
100118.525534
100118.525345
100118.525152
100118.524955
100118.524757
100118.524559
100118.524363
100118.524172
100118.523986
100118.523807
100118.523638
100118.52348
100118.523338
100118.523213
100118.523107
100118.52302
100118.522954
100118.522911
100118.522889
100118.522887
100118.522902
100118.522934
100118.52298
100118.523039
100118.523108
100118.523187
100118.523271
100118.523356
100118.523439
100118.523519
100118.523597
100118.523672
100118.523745
100118.523814
100118.52388
100118.523943
100118.524002
100118.524055
100118.524101
100118.524141
100118.524173
100118.524199
100118.524217
100118.524228
100118.524232
100118.52423
100118.524223
100118.52421
100118.524194
100118.524174
100118.524151
100118.524127
100118.524099
100118.524067
100118.52403
100118.523988
100118.523941
100118.523889
100118.52383
100118.523765
100118.523693
100118.523615
100118.523534
100118.523455
100118.523379
100118.52331
100118.523249
100118.523202
100118.523173
100118.523171
100118.523194
100118.523232
100118.52328
100118.523333
100118.523387
100118.523441
100118.523491
100118.52353
100118.523554