/*--------------------------------*- C++ -*----------------------------------*\
  =========                 |
  \\      /  F ield         | OpenFOAM: The Open Source CFD Toolbox
   \\    /   O peration     | Website:  https://openfoam.org
    \\  /    A nd           | Version:  12
     \\/     M anipulation  |
\*---------------------------------------------------------------------------*/
FoamFile
{
    format      ascii;
    class       volScalarField;
    location    "10";
    object      p_rgh;
}
// * * * * * * * * * * * * * * * * * * * * * * * * * * * * * * * * * * * * * //

dimensions      [1 -1 -2 0 0 0 0];

internalField   nonuniform List<scalar> 
40000
(
119.143194825
119.144145712
119.14448233
119.144620212
119.144680934
119.144723395
119.144767653
119.144816856
119.14487344
119.144941162
119.145020533
119.145111995
119.145215856
119.145332349
119.145461597
119.145603449
119.145757347
119.145922129
119.146095961
119.146276726
119.146461915
119.146648757
119.146834326
119.147014799
119.147185734
119.14734458
119.147490939
119.147623615
119.147733267
119.147802257
119.147831684
119.147825461
119.147786357
119.147716386
119.147621518
119.147508319
119.14738278
119.14724977
119.147113203
119.14697626
119.146842582
119.146717084
119.146604052
119.146506569
119.146427347
119.146368375
119.146328849
119.14630683
119.146301724
119.14631559
119.14634893
119.146397666
119.146456796
119.14652245
119.146590793
119.14665909
119.146726017
119.146791545
119.146856315
119.146920839
119.146985275
119.147049723
119.147114351
119.147179571
119.147245966
119.147313963
119.147383444
119.147453319
119.147522488
119.147590428
119.147656393
119.147719989
119.147781643
119.147841652
119.147900291
119.147957522
119.148011806
119.148062028
119.148107339
119.148146425
119.148177783
119.148200117
119.14821224
119.148213076
119.148201956
119.14817876
119.148143795
119.148097682
119.148041597
119.14797754
119.147908587
119.147839117
119.147773777
119.147714601
119.147659108
119.147610373
119.147578621
119.147560968
119.147557945
119.147573005
119.147605908
119.147653219
119.147709132
119.1477665
119.14781907
119.147862665
119.147893432
119.14790922
119.147910517
119.147896009
119.147851037
119.147767195
119.14764211
119.147473853
119.147263394
119.147014976
119.146735816
119.146435117
119.146124144
119.145809909
119.145496286
119.145220273
119.145020958
119.1448966
119.14484641
119.144863952
119.144919117
119.144985801
119.145045097
119.145087371
119.145113946
119.145133987
119.145152391
119.145167432
119.145175804
119.145173093
119.145154186
119.145115597
119.145048496
119.144934133
119.144787366
119.144628489
119.144457683
119.144274602
119.14408445
119.14388746
119.143682995
119.143473563
119.143259949
119.143038522
119.142807845
119.142571494
119.14233495
119.14210302
119.141881193
119.14167797
119.141503789
119.141368795
119.141281543
119.141245596
119.141255996
119.14130235
119.14137306
119.141455037
119.141535019
119.141601722
119.141645931
119.141661065
119.141643068
119.141589713
119.141500839
119.141379508
119.141231564
119.141063658
119.140882861
119.140697392
119.140516479
119.140349911
119.140207793
119.140100816
119.140040963
119.140042354
119.140122455
119.140304265
119.140619904
119.141115615
119.141859806
119.142959607
119.144581828
119.146934576
119.150237474
119.154841596
119.161113177
119.169375262
119.179721907
119.191630099
119.203436281
119.212283981
119.215727909
119.214336206
119.142287537
119.144186401
119.144575377
119.144677421
119.144712941
119.144740108
119.144772399
119.144815189
119.144870705
119.14493838
119.145018003
119.14510989
119.145214421
119.145331982
119.145463275
119.145608914
119.145769443
119.145945003
119.146133209
119.146331638
119.146537555
119.146747478
119.146959325
119.147169996
119.147375615
119.147572943
119.1477592
119.147925129
119.148059718
119.148154162
119.148202214
119.148203618
119.148162334
119.14808431
119.147977282
119.147849206
119.147706885
119.147555758
119.147400585
119.14724518
119.147093552
119.146950983
119.146821715
119.14670948
119.146617047
119.146549246
119.146500256
119.146469101
119.14646002
119.146474774
119.146511201
119.146564585
119.146630023
119.146702464
119.146777298
119.146851516
119.146923936
119.146994963
119.147065291
119.147135
119.14720368
119.147270835
119.147335895
119.14739841
119.147458929
119.147519129
119.147580677
119.147643339
119.14770501
119.147764198
119.147820582
119.147874351
119.14792611
119.147976366
119.148025069
119.148072492
119.148115673
119.148155148
119.14819001
119.148219035
119.148240944
119.148254496
119.148258605
119.148252364
119.148235022
119.148206045
119.148165521
119.148114356
119.148054111
119.147987014
119.147916419
119.14784852
119.147791319
119.147743957
119.147695114
119.147642743
119.147591427
119.147556102
119.147543383
119.147553469
119.147584139
119.147630906
119.147686941
119.147744396
119.147796385
119.147838237
119.147866658
119.147881099
119.147881885
119.147858005
119.147802539
119.147714107
119.147586607
119.147417542
119.14720767
119.146962335
119.146691244
119.146407977
119.146131535
119.145864661
119.145589857
119.145291883
119.145012348
119.144821821
119.144747921
119.144769033
119.14484069
119.144921279
119.144988127
119.145036096
119.145067927
119.14509037
119.145110452
119.145128771
119.14514041
119.145139301
119.14512023
119.145078439
119.145006
119.144906045
119.144770579
119.144603687
119.144419696
119.144228014
119.144029352
119.143824544
119.143612817
119.143394815
119.143171152
119.142939143
119.142696316
119.14244478
119.142190337
119.141939233
119.141698801
119.141478935
119.141291193
119.141146994
119.141055567
119.141020617
119.141037347
119.141093861
119.14117556
119.141267591
119.14135557
119.141426858
119.141471797
119.141483924
119.141459515
119.141396852
119.141296259
119.141160743
119.140995987
119.14080928
119.140608601
119.140402695
119.140201096
119.140013662
119.139850233
119.139720828
119.139636183
119.139608381
119.139651681
119.139784186
119.140030899
119.140428875
119.141034664
119.141932114
119.143250367
119.145195152
119.148046139
119.152078671
119.157640285
119.1650607
119.174475644
119.185499235
119.196820826
119.206142225
119.211142209
119.211562095
119.140711573
119.143993462
119.144617852
119.144722902
119.144738526
119.144745238
119.144764487
119.144800254
119.144850996
119.14491545
119.144993013
119.1450836
119.145187295
119.145304686
119.145437721
119.14558927
119.145762468
119.145959647
119.146182063
119.146428283
119.146693239
119.146974242
119.147267477
119.147564175
119.147854149
119.148130373
119.148382715
119.148590276
119.148740554
119.148827708
119.148852142
119.148821395
119.148744017
119.148630676
119.14849191
119.148335673
119.148168601
119.147996728
119.147824288
119.147653936
119.147488419
119.147332524
119.147191916
119.147076953
119.14697048
119.146881327
119.146819328
119.146785124
119.146777548
119.14679634
119.146839036
119.146900316
119.146973916
119.147053558
119.14713341
119.14720883
119.147277353
119.14733893
119.147394674
119.147445544
119.147492509
119.147536625
119.147578605
119.147618713
119.14765755
119.147696417
119.147736984
119.14777952
119.147822158
119.14786314
119.147901894
119.14793856
119.147973801
119.148008483
119.148041792
119.148072328
119.148102338
119.148130812
119.148156442
119.148178078
119.148194484
119.148204388
119.148206552
119.1481999
119.14818351
119.148156696
119.148119276
119.148071671
119.148014926
119.147950504
119.147878998
119.14780429
119.147726117
119.147652324
119.147593489
119.147546819
119.147506995
119.147476148
119.147459626
119.147459913
119.1474762
119.147505102
119.147541969
119.147581741
119.147619051
119.147649141
119.14766926
119.147677876
119.147669856
119.147643772
119.147597746
119.147523912
119.147416177
119.147271252
119.147088589
119.14687071
119.146623631
119.146353058
119.146052465
119.145738291
119.145453119
119.145202988
119.144979746
119.144802582
119.144693808
119.144646596
119.144634912
119.144632049
119.144625233
119.144614644
119.144605257
119.144604864
119.144618477
119.14464481
119.14467867
119.144713407
119.144740845
119.144751727
119.144735926
119.144692078
119.144613744
119.144495694
119.144347893
119.144175295
119.143980203
119.143762767
119.143522653
119.143260181
119.142976176
119.142671902
119.142350674
119.142019093
119.14168549
119.141358508
119.14104876
119.140769661
119.140536492
119.140364475
119.140265825
119.14024577
119.140298472
119.14040625
119.140544994
119.140691515
119.140826271
119.14093297
119.140999864
119.141020005
119.140990363
119.14091086
119.140784167
119.140615454
119.140412075
119.140183063
119.139938598
119.139689491
119.13944648
119.139219623
119.139018209
119.138851142
119.138727491
119.13865675
119.13864912
119.138716488
119.13887408
119.139145289
119.139575876
119.140246726
119.141260441
119.142772038
119.144996736
119.148222645
119.152800253
119.159091025
119.167319215
119.177302385
119.188125216
119.197988117
119.204575129
119.206502994
119.138829845
119.143675877
119.144606095
119.144747236
119.144746592
119.144738027
119.144745158
119.144770115
119.144811534
119.14486832
119.144939211
119.14502362
119.145122228
119.145237582
119.145374679
119.145540195
119.145739903
119.145979603
119.146264817
119.146591675
119.146951665
119.147333179
119.147723426
119.14810698
119.148467865
119.148792316
119.149059252
119.149249217
119.149352912
119.149383261
119.149353313
119.149272121
119.149152002
119.149005658
119.148842678
119.148669974
119.148492079
119.148313389
119.148137638
119.147968898
119.14781127
119.147662689
119.147522762
119.14739237
119.147291248
119.147213288
119.147158923
119.147129292
119.147123571
119.147139452
119.147173408
119.147220499
119.147274901
119.147330648
119.147382377
119.147426179
119.14746029
119.147484814
119.147501315
119.147512105
119.147519789
119.147526626
119.147533701
119.147541412
119.147550736
119.147563363
119.147580628
119.147602397
119.147626975
119.147652493
119.14767803
119.147703533
119.147729249
119.147755111
119.14778122
119.147808175
119.147836092
119.147863494
119.147889116
119.147911739
119.147930081
119.147942825
119.147948754
119.147946853
119.147936293
119.147916383
119.147886361
119.147845407
119.147794539
119.14773628
119.14766169
119.147584609
119.147510227
119.147439409
119.147373043
119.147311537
119.147255169
119.14720624
119.147168518
119.147144756
119.147135277
119.147138704
119.147152528
119.147173085
119.147196578
119.147219833
119.147240105
119.147253707
119.14725615
119.147249518
119.147228764
119.147185038
119.147112315
119.147006904
119.146865353
119.146685189
119.146467627
119.14621643
119.145945757
119.145664738
119.145380902
119.14510423
119.144843401
119.144611217
119.144417519
119.14425983
119.144126099
119.144004595
119.143891982
119.143792642
119.143716386
119.143675487
119.143678008
119.143722856
119.143802177
119.143904203
119.144013539
119.144114767
119.144189987
119.144231157
119.144226545
119.144176181
119.144081512
119.143941615
119.143755185
119.143521458
119.143240961
119.142916095
119.14255087
119.142151626
119.14172769
119.141290778
119.140853034
119.140426429
119.140024867
119.139665468
119.139368662
119.139156272
119.139046274
119.139047301
119.139152766
119.139335815
119.139556041
119.139776894
119.13997479
119.14013003
119.140229435
119.140266308
119.140238576
119.140147545
119.139997249
119.139794938
119.13955106
119.139277984
119.138988896
119.138696792
119.138413677
119.138150036
119.137914524
119.13771422
119.137555699
119.137445527
119.137389359
119.137391473
119.13745574
119.137588466
119.137815258
119.138219911
119.138875236
119.139864961
119.141377
119.143672493
119.147097476
119.152053955
119.158886465
119.167660441
119.177862689
119.18812443
119.1961613
119.199624051
119.136746376
119.143239142
119.144532616
119.144727574
119.144728591
119.144708836
119.144703089
119.144715978
119.14474594
119.144791348
119.144850685
119.144923693
119.145013144
119.145125462
119.145270008
119.145457033
119.145695495
119.14599477
119.146357161
119.146777413
119.147237966
119.147711351
119.148175237
119.148612105
119.14899796
119.149314212
119.149547648
119.149681607
119.149730432
119.149711961
119.14964028
119.149527013
119.149386904
119.149230793
119.149066316
119.148896461
119.148721858
119.1485459
119.148371754
119.148198481
119.148029677
119.14787569
119.147741586
119.147622656
119.147523067
119.147442568
119.147380682
119.147336905
119.147310259
119.147298609
119.147298344
119.147304773
119.147312719
119.147317148
119.147314795
119.147305528
119.14729106
119.147272429
119.147250745
119.147227615
119.147204845
119.147184079
119.147166548
119.147153396
119.147145767
119.147144095
119.147148099
119.147157069
119.147170093
119.147186567
119.147206139
119.147228556
119.147253424
119.147280291
119.14730661
119.14733509
119.147364005
119.147391991
119.147417974
119.147440818
119.147459286
119.147472326
119.147479117
119.147478828
119.147470597
119.147453813
119.147427711
119.147390025
119.147341894
119.147281357
119.14722185
119.147155249
119.147084095
119.147010405
119.146935792
119.146861347
119.146788314
119.14671894
119.146656376
119.146603769
119.146563647
119.146537717
119.146526408
119.146528865
119.146543338
119.146567686
119.146598417
119.146629625
119.146657938
119.146681639
119.146693991
119.146686303
119.146651553
119.146582552
119.146472635
119.146320001
119.146129077
119.145907498
119.145656691
119.145382283
119.145089346
119.144783121
119.144469654
119.144156537
119.143851063
119.143558049
119.143280286
119.143021342
119.142789107
119.142596463
119.142460205
119.142396085
119.142411836
119.142503811
119.142658808
119.14286005
119.143085308
119.143310634
119.14351279
119.14365603
119.143737352
119.143754955
119.143705895
119.143586967
119.143395843
119.143132438
119.142799411
119.142402623
119.141951018
119.141455621
119.140929125
119.140385973
119.13984225
119.139315267
119.138822724
119.138384645
119.138026402
119.137777035
119.13766046
119.137688317
119.137851796
119.138109254
119.1383972
119.138672092
119.138921122
119.139120744
119.139255816
119.139319863
119.13930989
119.139226032
119.139072082
119.138856247
119.138590876
119.13829099
119.137972624
119.137650984
119.137339506
119.137049363
119.136789096
119.136565127
119.136383259
119.136249033
119.136164004
119.136123451
119.136124681
119.136171618
119.136287225
119.136485438
119.136797492
119.137310353
119.138164296
119.139574979
119.141860861
119.145443495
119.150773222
119.158150467
119.167440789
119.177693955
119.186819416
119.191823652
119.134500972
119.142698325
119.144393263
119.144660949
119.144666641
119.144637684
119.144618558
119.144618317
119.14463537
119.144667335
119.144712507
119.14477203
119.14485186
119.144961559
119.145113623
119.145321903
119.14560185
119.145962302
119.146404288
119.146913708
119.147459194
119.148001336
119.148511187
119.148964737
119.149336711
119.149611917
119.149786398
119.14987739
119.149894888
119.149854656
119.149768464
119.1496472
119.14950103
119.149340337
119.149173322
119.149002177
119.148824278
119.14863852
119.14845349
119.148278242
119.148113204
119.147958775
119.147816504
119.147686249
119.147568876
119.147464248
119.147371925
119.147291552
119.147222746
119.147163836
119.147111964
119.147064486
119.147018466
119.146970784
119.146919832
119.146865271
119.14680871
119.146752889
119.146699772
119.146650357
119.146605607
119.146567232
119.146536951
119.146515937
119.14650474
119.146503052
119.146509586
119.146522387
119.146539926
119.146561359
119.146585993
119.14661329
119.146642354
119.146672263
119.146704977
119.146735849
119.146764616
119.14679086
119.146814064
119.146833403
119.146848132
119.146857905
119.146862556
119.146861577
119.146853802
119.14683806
119.146814631
119.146779816
119.146738182
119.146688213
119.146630029
119.146561961
119.146484623
119.146399414
119.146308239
119.146213152
119.146116687
119.146022119
119.145933479
119.145855215
119.145791702
119.145746772
119.145723022
119.145721086
119.145739823
119.145777377
119.145830538
119.145893598
119.145962372
119.146028978
119.146084609
119.146118091
119.146119875
119.146081324
119.145999437
119.145875666
119.145708938
119.1454948
119.145234711
119.144932597
119.144594491
119.14422675
119.143834601
119.143423217
119.142999689
119.142574044
119.142158189
119.141765958
119.141414967
119.141126849
119.14092675
119.140837173
119.140868882
119.141018755
119.141268399
119.141602961
119.142001608
119.142398417
119.14272844
119.142977491
119.143148159
119.143235317
119.143228957
119.143124364
119.142920115
119.142619347
119.142229035
119.14176014
119.141226702
119.140643879
119.140028081
119.139397415
119.138771072
119.138168062
119.137607271
119.137110588
119.136706967
119.136429561
119.136303243
119.136344222
119.136550275
119.136880882
119.137246952
119.137580242
119.137842165
119.138034538
119.138157338
119.138216902
119.138209753
119.138133183
119.137989205
119.137784673
119.137530443
119.137240553
119.136930819
119.136617034
119.13631353
119.136031248
119.135776651
119.135554078
119.135366898
119.135219233
119.135112387
119.135039353
119.135003943
119.135005818
119.135035328
119.135077066
119.135154209
119.135325337
119.135683889
119.136391558
119.137714775
119.140061475
119.143944099
119.149845082
119.157963618
119.167780835
119.177582328
119.184072336
119.13211295
119.142055846
119.144181254
119.144533176
119.144549553
119.144513104
119.144482378
119.144468773
119.14447138
119.144487432
119.144515221
119.144557466
119.144622989
119.144724259
119.144878139
119.145104217
119.145423304
119.145843976
119.146361081
119.146949136
119.147565698
119.14816339
119.148702455
119.149147922
119.149482036
119.149704787
119.14982594
119.149875307
119.149873035
119.149830185
119.149752461
119.149645196
119.149511089
119.149353266
119.149173642
119.148976332
119.148770608
119.148568453
119.148374564
119.148189191
119.148009785
119.147835012
119.147664337
119.147499112
119.147341577
119.147193275
119.147055253
119.146927736
119.146810426
119.146701933
119.146600797
119.146505007
119.146412313
119.146321192
119.146230798
119.14614066
119.146051948
119.145968136
119.145892404
119.145827281
119.145774736
119.145735433
119.145708585
119.145692608
119.14568651
119.145690537
119.145704383
119.145726368
119.145755352
119.145790018
119.145828655
119.145870454
119.145915764
119.145962421
119.146007281
119.146048208
119.146084742
119.146116492
119.146142856
119.146163111
119.146176614
119.14618308
119.146182555
119.146174919
119.146159084
119.146134436
119.146101688
119.146066509
119.146021326
119.145965613
119.145898249
119.145817972
119.145724676
119.145619467
119.145504277
119.145381441
119.145254628
119.145128966
119.145010152
119.144904155
119.144817031
119.144754864
119.14472314
119.144725364
119.144762638
119.144834865
119.144940213
119.145071544
119.145212778
119.145343163
119.145452501
119.145531536
119.145573451
119.145576113
119.145533976
119.145438442
119.145282621
119.14506418
119.144782426
119.144439524
119.144042714
119.143601787
119.143124642
119.142617972
119.142092309
119.141562776
119.141046111
119.140561923
119.14013294
119.139785562
119.139547936
119.139443034
119.139478005
119.139654728
119.139960389
119.140346528
119.140764128
119.14117332
119.141549633
119.141884923
119.142165984
119.14237266
119.142484304
119.142480821
119.142347107
119.142078223
119.141682427
119.141179869
119.1405977
119.139961897
119.139293545
119.138614258
119.13794994
119.137323827
119.13675501
119.136263354
119.135878025
119.135641267
119.135585892
119.135747815
119.136024833
119.136331178
119.136626286
119.136875414
119.137060819
119.137188205
119.137260228
119.137266137
119.137206804
119.137094465
119.136937252
119.136742042
119.136513566
119.136261387
119.135996342
119.135730395
119.13547564
119.135240455
119.135028432
119.134840357
119.134675188
119.134538425
119.134440581
119.134389442
119.134359553
119.134329826
119.134282977
119.134218072
119.134145913
119.134092416
119.134116408
119.134343665
119.134953548
119.13630971
119.138929251
119.14340142
119.150197249
119.159235574
119.169320429
119.177184091
119.129597111
119.141315641
119.143896617
119.144344357
119.144375588
119.144335005
119.144294489
119.144268389
119.144256116
119.144254541
119.144261902
119.144281682
119.144325584
119.144411072
119.144560051
119.144796323
119.145145886
119.145619201
119.146202073
119.146861077
119.147543884
119.148194855
119.148762555
119.149207454
119.149520512
119.149709761
119.14979017
119.149793813
119.149749187
119.149667339
119.149554332
119.149415149
119.149252527
119.149070459
119.148878004
119.148681764
119.148482816
119.148280702
119.148074237
119.147862618
119.14764704
119.14743224
119.14722251
119.147019453
119.146824007
119.14663714
119.146459581
119.14629072
119.146128555
119.145972108
119.145821713
119.145676934
119.145536401
119.145399179
119.145265306
119.145135788
119.145012163
119.144896198
119.144789778
119.144695762
119.144618102
119.14456042
119.144524739
119.144510553
119.144514028
119.144531489
119.144561403
119.144602384
119.144654439
119.144717756
119.14479052
119.14487035
119.144953537
119.145036337
119.145116724
119.145193347
119.145264905
119.145330111
119.145387673
119.145436068
119.145474129
119.14550142
119.145517805
119.145523599
119.145517491
119.145499648
119.145470115
119.145427729
119.145370427
119.145297536
119.145208519
119.145102873
119.144981327
119.144845783
119.144698277
119.144540845
119.144376108
119.144209248
119.144046299
119.143894495
119.143762412
119.143658227
119.143590193
119.143566275
119.143593361
119.14367435
119.143807285
119.143982731
119.144181285
119.144384467
119.144576504
119.144749103
119.144893269
119.144994195
119.145036898
119.145005158
119.144887651
119.144681751
119.144390468
119.144022111
119.143588796
119.143102914
119.142576108
119.142018886
119.141444176
119.140870781
119.140321866
119.139825569
119.139410852
119.139107011
119.138943142
119.138946067
119.139103491
119.13933705
119.13958734
119.139832603
119.140060476
119.140277785
119.140498896
119.140720449
119.140929472
119.141109207
119.141239526
119.141296372
119.141253358
119.141088957
119.140794005
119.140378155
119.139867466
119.139293965
119.138683102
119.13805714
119.137440318
119.136859483
119.136336826
119.135889672
119.135556895
119.135402936
119.135451656
119.135605348
119.135828713
119.136068266
119.136291705
119.136477841
119.136608644
119.13668065
119.136700282
119.136667724
119.136573905
119.136425805
119.136252814
119.136051515
119.135827602
119.135588226
119.135341234
119.135099191
119.134872887
119.1346667
119.134484666
119.134329646
119.134200958
119.134104667
119.134039514
119.133995246
119.133958195
119.133913804
119.133848931
119.133752231
119.13362163
119.133474595
119.133353492
119.133328633
119.133460457
119.134111978
119.135747465
119.138976536
119.144459658
119.152528271
119.162586606
119.171686858
119.126966812
119.140485535
119.143545759
119.144100965
119.144148483
119.144105994
119.144057766
119.144019143
119.143990922
119.143969973
119.143954232
119.143947565
119.143963956
119.144025792
119.144159925
119.144394612
119.144761907
119.145274195
119.145909798
119.146630291
119.147373825
119.148073323
119.14866703
119.149114432
119.149409622
119.14956645
119.14960602
119.149565216
119.149483048
119.1493692
119.149228364
119.149067087
119.148890071
119.148699754
119.148498781
119.148289017
119.148069884
119.147840681
119.147602922
119.147359762
119.147112033
119.146861259
119.146611091
119.146364292
119.146122964
119.145887898
119.145658942
119.145436255
119.145220397
119.145011909
119.144811039
119.144617244
119.144430057
119.144249421
119.144075685
119.143909688
119.143752839
119.143607106
119.143474909
119.143359219
119.143262584
119.143187279
119.143136813
119.143115384
119.143122548
119.143147473
119.143180305
119.143222973
119.143281458
119.143353402
119.14343694
119.143531142
119.143633539
119.14374029
119.143850255
119.143962825
119.144077933
119.144193745
119.144307568
119.144415862
119.144515575
119.144604736
119.144680062
119.1447444
119.144793132
119.144825151
119.144837374
119.144827741
119.144795405
119.144740768
119.144663195
119.144561748
119.144437999
119.144295033
119.144135476
119.143961467
119.143776962
119.143587731
119.143400042
119.143218377
119.143047646
119.142896956
119.142778902
119.142704588
119.142682152
119.142713795
119.14279377
119.142917529
119.143076385
119.143258108
119.143458238
119.143672602
119.143894884
119.144104496
119.144271233
119.14436413
119.144358531
119.144242963
119.144019786
119.143695754
119.143286396
119.142814018
119.142293276
119.141743112
119.141184214
119.140640083
119.140136691
119.139701073
119.13935849
119.139134997
119.139068447
119.139148469
119.139295604
119.139458712
119.139605705
119.139726504
119.139816246
119.139876446
119.139915769
119.139939081
119.139955609
119.139969488
119.139968632
119.139942974
119.139872863
119.139737519
119.139524123
119.139228763
119.138852159
119.138407599
119.137908439
119.137382262
119.136856852
119.136362919
119.135928573
119.135581514
119.13535731
119.135265465
119.135283353
119.135377673
119.135524333
119.135690101
119.135844998
119.135972852
119.1360636
119.136112957
119.136116498
119.136081579
119.135995621
119.135858528
119.135687151
119.135483844
119.135266368
119.135043907
119.134829387
119.13462172
119.134422469
119.134246593
119.134092287
119.133962078
119.133852316
119.133776557
119.13373368
119.133700905
119.133665248
119.133620116
119.133562335
119.133484426
119.133381417
119.133246035
119.133070035
119.132927854
119.132847743
119.133063936
119.134024558
119.136298254
119.140641483
119.147729776
119.157581819
119.167792513
119.124228179
119.139566427
119.143126459
119.143799088
119.143866694
119.143827184
119.143774171
119.143724893
119.143680826
119.143639436
119.143597937
119.143559968
119.143541477
119.143569413
119.143675819
119.143894692
119.144265602
119.144801814
119.145479106
119.146252837
119.147053595
119.147804235
119.14843797
119.148911658
119.149219485
119.149383011
119.149424539
119.149370008
119.149263839
119.149125632
119.148960509
119.148772678
119.148566356
119.148345613
119.14811292
119.147868829
119.147613239
119.147347576
119.147072374
119.146788156
119.146497938
119.146204211
119.145909654
119.145617542
119.14533001
119.145048036
119.144772466
119.144506064
119.144252042
119.144011604
119.143784656
119.143571567
119.14337334
119.14319057
119.143023196
119.142871533
119.142736295
119.142617802
119.142514757
119.142425476
119.142349893
119.142287834
119.142239088
119.142201464
119.142170907
119.142146472
119.142130465
119.142125593
119.142132493
119.14215173
119.142184243
119.142229168
119.142282995
119.142344538
119.142417396
119.142504822
119.142608305
119.142723686
119.142846111
119.142972971
119.143101239
119.143230912
119.143365052
119.143497328
119.143621476
119.143731982
119.143825877
119.143901719
119.143956349
119.143987796
119.143991705
119.143961258
119.143893339
119.143793355
119.143670926
119.143525921
119.143360314
119.143182114
119.142999243
119.142814553
119.142635862
119.142476185
119.142350104
119.142265285
119.142217553
119.142199976
119.142205891
119.142230388
119.142278668
119.142353379
119.142456923
119.142589529
119.142746257
119.142921322
119.143105589
119.143270625
119.143385318
119.143425001
119.143367544
119.14319851
119.14291717
119.142549157
119.142135228
119.141697723
119.141248189
119.14079862
119.140368158
119.13998305
119.139677765
119.139489855
119.139429908
119.139448365
119.139505353
119.139569135
119.139620624
119.13965132
119.139659859
119.139645583
119.139608229
119.139547306
119.139467646
119.139351793
119.1391975
119.139032232
119.138853074
119.13864035
119.138386776
119.138081081
119.137733124
119.137351977
119.13693784
119.136509076
119.136089484
119.13569736
119.13534809
119.135089423
119.134940585
119.134895101
119.1349089
119.134965242
119.13506234
119.135179816
119.135293878
119.13538902
119.135461834
119.13550137
119.135491027
119.135452546
119.135376842
119.135255486
119.135088144
119.134894136
119.134695632
119.134514838
119.134358664
119.134200192
119.134036321
119.133885841
119.133758771
119.133658937
119.133578722
119.133512975
119.133462665
119.133421581
119.133381105
119.133335957
119.133284381
119.13322265
119.133144259
119.133041556
119.132912095
119.132769953
119.132656136
119.132714027
119.133255065
119.134872433
119.138353799
119.144610523
119.154218305
119.165450426
119.121386899
119.138560773
119.142640578
119.143440378
119.143534169
119.143498417
119.143441996
119.14338473
119.14332741
119.143266847
119.143199543
119.143128217
119.143069124
119.143053184
119.143118116
119.143304569
119.143661523
119.144205586
119.144912615
119.145731832
119.146586351
119.147393815
119.14808341
119.148606099
119.148950855
119.149142581
119.149208716
119.149168325
119.149051679
119.148891584
119.148700672
119.14848599
119.148251918
119.148001914
119.147738165
119.147460933
119.14717112
119.146869237
119.146555856
119.146233629
119.145905027
119.145573145
119.145241409
119.144913673
119.144593573
119.144283613
119.14398704
119.14370903
119.143453731
119.143222115
119.143013916
119.142829874
119.142671047
119.142537018
119.142425834
119.142335968
119.142264469
119.142206624
119.142155537
119.142105045
119.142051701
119.141994082
119.141932295
119.141866931
119.141799036
119.141730347
119.141662746
119.141597686
119.141537183
119.141483569
119.141438076
119.141400575
119.141372291
119.141356374
119.141355586
119.141370184
119.141398293
119.141438086
119.141488616
119.14154898
119.141622137
119.141714544
119.141826343
119.141950823
119.142083028
119.142214131
119.142340549
119.142465044
119.142582697
119.142688313
119.14277452
119.142833678
119.14285784
119.142847506
119.14280381
119.142727712
119.142630541
119.142522833
119.142403463
119.142274207
119.14213705
119.141999959
119.141864715
119.141738543
119.141644027
119.141593245
119.141568061
119.141555678
119.141554254
119.141555974
119.141562409
119.141587008
119.141637925