/*--------------------------------*- C++ -*----------------------------------*\
  =========                 |
  \\      /  F ield         | OpenFOAM: The Open Source CFD Toolbox
   \\    /   O peration     | Website:  https://openfoam.org
    \\  /    A nd           | Version:  12
     \\/     M anipulation  |
\*---------------------------------------------------------------------------*/
FoamFile
{
    format      ascii;
    class       surfaceScalarField;
    location    "10";
    object      phi;
}
// * * * * * * * * * * * * * * * * * * * * * * * * * * * * * * * * * * * * * //

dimensions      [1 0 -1 0 0 0 0];

internalField   nonuniform List<scalar> 
79600
(
-1.12141815406e-05
1.12154871242e-05
-1.14660957598e-05
2.52172405964e-07
-9.50827532625e-06
-1.95835420625e-06
-7.82756280022e-06
-1.68110886117e-06
-6.91564198634e-06
-9.12251995188e-07
-6.62468132652e-06
-2.91241760813e-07
-6.75863269674e-06
1.33696701373e-07
-7.17404879015e-06
4.15177764675e-07
-7.76386379973e-06
5.89583449707e-07
-8.46729699769e-06
7.03205748501e-07
-9.25776499137e-06
7.90242832115e-07
-1.01213455355e-05
8.63354576246e-07
-1.10502435014e-05
9.2866379746e-07
-1.20399799999e-05
9.8948383751e-07
-1.30888343431e-05
1.0485461198e-06
-1.41970078875e-05
1.10773436821e-06
-1.53635492467e-05
1.16584588363e-06
-1.65822042247e-05
1.21754478859e-06
-1.78433921475e-05
1.25945001378e-06
-1.91332390264e-05
1.28713020964e-06
-2.04320100542e-05
1.29448821438e-06
-2.17063919962e-05
1.26768499722e-06
-2.2898058753e-05
1.18197960857e-06
-2.39425663114e-05
1.03205792743e-06
-2.47922820003e-05
8.3412947468e-07
-2.54038138401e-05
5.92307788846e-07
-2.57406764861e-05
3.13742828474e-07
-2.58002274324e-05
3.28307417037e-08
-2.56011416217e-05
-2.30047952528e-07
-2.51575314963e-05
-4.78302264238e-07
-2.45063240479e-05
-6.88744507857e-07
-2.37093811279e-05
-8.35809675584e-07
-2.27988874512e-05
-9.48817702015e-07
-2.180861097e-05
-1.027784372e-06
-2.07691894461e-05
-1.07538752499e-06
-1.97146669094e-05
-1.08838023154e-06
-1.86782313266e-05
-1.06785538739e-06
-1.76878699961e-05
-1.01913816014e-06
-1.67659522987e-05
-9.47999369803e-07
-1.59283817476e-05
-8.61049798778e-07
-1.51889690471e-05
-7.6043643573e-07
-1.45630949979e-05
-6.44671724301e-07
-1.40641075259e-05
-5.15765349555e-07
-1.36945514759e-05
-3.844886105e-07
-1.34545938707e-05
-2.53271920349e-07
-1.33411086148e-05
-1.25487542777e-07
-1.33521657901e-05
6.24402201859e-11
-1.34913269324e-05
1.28433440965e-07
-1.37602280992e-05
2.58176175447e-07
-1.41495637573e-05
3.78183499827e-07
-1.46429403691e-05
4.82021918492e-07
-1.52175571067e-05
5.62944159512e-07
-1.5845346228e-05
6.15469194068e-07
-1.64989547619e-05
6.40697828274e-07
-1.71549401571e-05
6.42410722757e-07
-1.77982073449e-05
6.28988425846e-07
-1.84243762884e-05
6.11199656998e-07
-1.90335724285e-05
5.93488959738e-07
-1.96249388048e-05
5.74944285312e-07
-2.0194322248e-05
5.52334637214e-07
-2.07363820325e-05
5.24430854846e-07
-2.12467195183e-05
4.92204756701e-07
-2.1725205364e-05
4.59940031598e-07
-2.21770361736e-05
4.32958936662e-07
-2.26079112662e-05
4.11934563937e-07
-2.30202081672e-05
3.93509215918e-07
-2.34091620152e-05
3.70468368199e-07
-2.37633115407e-05
3.36028614564e-07
-2.40729827932e-05
2.91889501524e-07
-2.43345737441e-05
2.44124263681e-07
-2.45453398245e-05
1.937229002e-07
-2.47053666323e-05
1.43545863729e-07
-2.48190350045e-05
9.78981365431e-08
-2.4891559226e-05
5.75076635185e-08
-2.4928598e-05
2.28015167047e-08
-2.49342651509e-05
-7.78623853549e-09
-2.49143841652e-05
-3.26358040869e-08
-2.4867230995e-05
-5.91819302249e-08
-2.4788782291e-05
-8.97187336724e-08
-2.46742460603e-05
-1.249429895e-07
-2.4519596061e-05
-1.64204117697e-07
-2.4321619007e-05
-2.06752267082e-07
-2.40769786187e-05
-2.52639259182e-07
-2.37833109402e-05
-3.00947511547e-07
-2.3441098291e-05
-3.48926985885e-07
-2.30542263806e-05
-3.9310837644e-07
-2.26298360494e-05
-4.30151507993e-07
-2.21777928072e-05
-4.57392344735e-07
-2.17101951543e-05
-4.72612777893e-07
-2.12426703353e-05
-4.72177438329e-07
-2.07951310912e-05
-4.51768355366e-07
-2.03881419593e-05
-4.10814518217e-07
-2.00350526357e-05
-3.56568266586e-07
-1.97401292254e-05
-2.98073928715e-07
-1.95160376605e-05
-2.26902760949e-07
-1.93992695763e-05
-1.19265947207e-07
-1.9436054142e-05
3.45148609391e-08
-1.9662878135e-05
2.24716387751e-07
-2.00988111916e-05
4.33956189129e-07
-2.07325245023e-05
6.31824006093e-07
-2.1528273198e-05
7.93927523472e-07
-2.24313719097e-05
9.01331519715e-07
-2.33714495592e-05
9.38402276124e-07
-2.42751362822e-05
9.02214700373e-07
-2.50806418447e-05
8.04281806824e-07
-2.57456519215e-05
6.64145749447e-07
-2.62435326115e-05
4.97392362175e-07
-2.65569012361e-05
3.13125931775e-07
-2.66776575574e-05
1.20682320214e-07
-2.66252165748e-05
-5.21356135009e-08
-2.63847503694e-05
-2.39325441001e-07
-2.59601073589e-05
-4.22640718614e-07
-2.53593512756e-05
-5.98225071817e-07
-2.46009729802e-05
-7.55668146937e-07
-2.37162187894e-05
-8.82084600232e-07
-2.27450940446e-05
-9.68712872614e-07
-2.17336793697e-05
-1.00939828756e-06
-2.07331679396e-05
-9.98921214035e-07
-1.97897749666e-05
-9.42262161827e-07
-1.89314047768e-05
-8.57646979807e-07
-1.82893354665e-05
-6.41682279525e-07
-1.80570726498e-05
-2.322329224e-07
-1.84492319665e-05
3.91884819564e-07
-1.9639114105e-05
1.18927655022e-06
-2.16404602261e-05
2.00022759109e-06
-2.42827942612e-05
2.64048988156e-06
-2.7291586713e-05
3.00654184676e-06
-3.04106050365e-05
3.11676131404e-06
-3.34542456034e-05
3.04189997036e-06
-3.63064150602e-05
2.85113625672e-06
-3.88720385157e-05
2.56480354835e-06
-4.10931345846e-05
2.22077466416e-06
-4.29314573443e-05
1.83845748866e-06
-4.43540461918e-05
1.42317309988e-06
-4.53490693186e-05
9.95879690237e-07
-4.59442008604e-05
5.95996491194e-07
-4.62069178998e-05
2.63530944686e-07
-4.62363315346e-05
3.00624590354e-08
-4.6108555794e-05
-1.27210329538e-07
-4.59212794158e-05
-1.86868572891e-07
-4.57969004056e-05
-1.24229002167e-07
-4.58625994345e-05
6.56085549263e-08
-4.6255868933e-05
3.93095025715e-07
-4.70490681013e-05
7.93114664318e-07
-4.82912914225e-05
1.24226578665e-06
-5.00021267957e-05
1.7110259945e-06
-5.21831863658e-05
2.18131358665e-06
-5.48264441277e-05
2.64313600178e-06
-5.78997098907e-05
3.07219765239e-06
-6.13342014671e-05
3.43322982112e-06
-6.50504134324e-05
3.71520576572e-06
-6.89730746388e-05
3.92201584274e-06
-7.30288133137e-05
4.05552633018e-06
-7.7134593748e-05
4.10598118077e-06
-8.12082545422e-05
4.07416987948e-06
-8.51748470311e-05
3.96729496098e-06
-8.89654284633e-05
3.79133110012e-06
-9.25207360391e-05
3.55598419958e-06
-9.58001751525e-05
3.27996518222e-06
-9.8786769828e-05
2.98691003355e-06
-0.00010148917972
2.70248246712e-06
-0.000103945394131
2.45606861291e-06
-0.000106220250457
2.27452181959e-06
-0.000108390140179
2.16938411133e-06
-0.000110532004733
2.14121440506e-06
-0.000112718396966
2.18563599805e-06
-0.000115010513729
2.29130112236e-06
-0.000117454073636
2.44274896491e-06
-0.000120077951676
2.62314199986e-06
-0.000122895478834
2.81692038602e-06
-0.000125907354855
3.01144003361e-06
-0.000129105439972
3.19785208777e-06
-0.000132473463089
3.36801318379e-06
-0.000135985321148
3.51207975199e-06
-0.000139605830886
3.62095385807e-06
-0.0001432988383
3.69364550895e-06
-0.000147031489686
3.73343723085e-06
-0.00015077355745
3.74293951751e-06
-0.000154496403738
3.7237314629e-06
-0.000158172965654
3.67738002954e-06
-0.000161776337615
3.6040344865e-06
-0.000165278208955
3.50229457958e-06
-0.000168646999587
3.36892313506e-06
-0.000171844601032
3.19744410927e-06
-0.000174819801641
2.97480900577e-06
-0.000177496395267
2.67607355473e-06
-0.000179760348449
2.26344852735e-06
-0.000181447469265
1.68679708534e-06
-0.000182294904863
8.47460302589e-07
-0.000181891497628
-4.02888676805e-07
-0.000179866958585
-2.02349382286e-06
-0.00017555587612
-4.30947935808e-06
-0.000168166420559
-7.38732670364e-06
-0.000156744980031
-1.14188955291e-05
-0.000140216445127
-1.65257644266e-05
-0.000117515883294
-2.26977684916e-05
-8.79473309242e-05
-2.95658068976e-05
-5.22809787274e-05
-3.56636181031e-05
-1.61772844512e-05
-3.61013333766e-05
-1.61772179138e-05
-9.00439571627e-06
2.02210989613e-05
-1.20568441882e-05
3.30456282849e-06
-1.23876475833e-05
-1.62912321298e-06
-1.23220148715e-05
-1.74704143243e-06
-1.2429512939e-05
-8.04992472789e-07
-1.28826791395e-05
1.61709784592e-07
-1.36203105865e-05
8.71128397535e-07
-1.45914154264e-05
1.38607101586e-06
-1.57628703773e-05
1.76081141673e-06
-1.71098944651e-05
2.05000435097e-06
-1.86127411732e-05
2.29286052238e-06
-2.02655900779e-05
2.51591723622e-06
-2.20737317305e-05
2.73637997153e-06
-2.40499387588e-05
2.96495049074e-06
-2.62113806077e-05
3.20867923081e-06
-2.85766653221e-05
3.47063461852e-06
-3.11575454655e-05
3.74242776575e-06
-3.39417825763e-05
3.9951269742e-06
-3.68747909934e-05
4.18228562693e-06
-3.98530532667e-05
4.24999799944e-06
-4.27419169799e-05
4.16144931912e-06
-4.54136867415e-05
3.91024225865e-06
-4.77311027123e-05
3.4625613146e-06
-4.95957965787e-05
2.8530960599e-06
-5.09504057189e-05
2.13904120932e-06
-5.17602286065e-05
1.34741376298e-06
-5.20077536945e-05
5.03053404393e-07
-5.16963475946e-05
-3.38623836517e-07
-5.09442266074e-05
-1.04140932265e-06
-4.98710089897e-05
-1.60689347382e-06
-4.85889865366e-05
-2.02015985865e-06
-4.7165742825e-05
-2.30205862238e-06
-4.56720274995e-05
-2.4787534732e-06
-4.41727796984e-05
-2.55671749873e-06
-4.2717948869e-05
-2.55458711543e-06
-4.13507766476e-05
-2.4754984895e-06
-4.01049147918e-05
-2.32967312827e-06
-3.90028764948e-05
-2.13388603841e-06
-3.80534256146e-05
-1.90754365077e-06
-3.72617891265e-05
-1.66056383822e-06
-3.66377073064e-05
-1.39076902177e-06
-3.61889575815e-05
-1.09819207049e-06
-3.59182783898e-05
-7.89690030848e-07
-3.58399669364e-05
-4.64998280877e-07
-3.59981707193e-05
-9.68781791305e-08
-3.6428334208e-05
3.02087803878e-07
-3.71334730488e-05
7.01456678964e-07
-3.80763173823e-05
1.06628235245e-06
-3.92229552465e-05
1.39810074882e-06
-4.05435972648e-05
1.68997298758e-06
-4.19947372691e-05
1.92227460917e-06
-4.35309680055e-05
2.08620703627e-06
-4.51111632606e-05
2.18073651337e-06
-4.669936272e-05
2.21220091829e-06
-4.82637982426e-05
2.18855024748e-06
-4.9775913044e-05
2.12158097041e-06
-5.12128283662e-05
2.02779918731e-06
-5.25606165325e-05
1.92062421224e-06
-5.38142986434e-05
1.80810014335e-06
-5.49751818306e-05
1.69321348573e-06
-5.6046755916e-05
1.57684106742e-06
-5.70345810041e-05
1.46197931415e-06
-5.79429470734e-05
1.35156183815e-06
-5.87724225651e-05
1.24711162425e-06
-5.95229937634e-05
1.14860726892e-06
-6.01957098787e-05
1.05363181494e-06
-6.0792174129e-05
9.55442298189e-07
-6.1311922532e-05
8.4522330017e-07
-6.17509318353e-05
7.21160395717e-07
-6.2104532564e-05
5.8864742993e-07
-6.23745537143e-05
4.55134631966e-07
-6.25669133147e-05
3.27686151235e-07
-6.26871930959e-05
2.10420743541e-07
-6.27410326674e-05
1.04183125551e-07
-6.27368625467e-05
1.21898151382e-08
-6.26734239803e-05
-7.69183196837e-08
-6.2545090858e-05
-1.65969000611e-07
-6.2353140074e-05
-2.55565852766e-07
-6.20991538739e-05
-3.47707790617e-07
-6.17844250086e-05
-4.43355280131e-07
-6.141076583e-05
-5.41305492275e-07
-6.09807929373e-05
-6.40027359906e-07
-6.05000524782e-05
-7.36659345019e-07
-5.99776962431e-05
-8.2663276212e-07
-5.94263824874e-05
-9.03603002558e-07
-5.88627160052e-05
-9.60129730723e-07
-5.8307394878e-05
-9.88827556911e-07
-5.77860429779e-05
-9.82104509677e-07
-5.73303625946e-05
-9.31663107243e-07
-5.69789734007e-05
-8.26965055497e-07
-5.67760498692e-05
-6.58126803272e-07
-5.67694309372e-05
-4.20831853948e-07
-5.70195458659e-05
-1.09521624662e-07
-5.75696755717e-05
2.49915159596e-07
-5.839611993e-05
5.9853932938e-07
-5.94127582037e-05
8.96866146104e-07
-6.05311704444e-05
1.15229962064e-06
-6.16876832723e-05
1.38042992664e-06
-6.28506956963e-05
1.5963072369e-06
-6.40009456443e-05
1.78168436375e-06
-6.51169799339e-05
1.90986338786e-06
-6.61707718383e-05
1.95530679467e-06
-6.71314826319e-05
1.89959534551e-06
-6.79643818222e-05
1.73588928527e-06
-6.86328210284e-05
1.47381301216e-06
-6.91065767057e-05
1.13940446202e-06
-6.93645343436e-05
7.57352089603e-07
-6.9403285474e-05
3.54304630842e-07
-6.92409752468e-05
-3.89577843783e-08
-6.88697606837e-05
-4.20408860511e-07
-6.83038433778e-05
-8.02558952931e-07
-6.75717254114e-05
-1.15263790279e-06
-6.67145221087e-05
-1.45414182441e-06
-6.57992811413e-05
-1.67072213729e-06
-6.49159454943e-05
-1.76658082538e-06
-6.41764477265e-05
-1.71087142947e-06
-6.37113865372e-05
-1.47848537745e-06
-6.36700075921e-05
-1.04503018519e-06
-6.42333395281e-05
-3.83129156988e-07
-6.55532330105e-05
4.59744829022e-07
-6.76523553745e-05
1.45567783614e-06
-7.03092488381e-05
2.42220191937e-06
-7.3286112572e-05
3.366349423e-06
-7.64463867998e-05
4.3477906982e-06
-7.97656374147e-05
5.31862932542e-06
-8.32331480604e-05
6.10810988285e-06
-8.68223493667e-05
6.59677953668e-06
-9.04545025892e-05
6.75077623185e-06
-9.40126958552e-05
6.60257181719e-06
-9.73651433409e-05
6.20635443301e-06
-0.000100392090742
5.59445380463e-06
-0.000103002855217
4.83392912337e-06
-0.000105151517049
3.98903003411e-06
-0.000106832278754
3.10527190759e-06
-0.000108063593261
2.22790260914e-06
-0.000108886423441
1.41888872762e-06
-0.000109366127181
7.42664745248e-07
-0.000109580093309
2.42862802457e-07
-0.000109650537013
-5.83991380913e-08
-0.000109701628553
-1.37730618476e-07
-0.000109847389072
1.91638795984e-08
-0.000110167358695
3.83024479325e-07
-0.000110742450642
9.65532400304e-07
-0.000111672970859
1.72108271738e-06
-0.000113005859843
2.57292197099e-06
-0.000114761468574
3.46494015289e-06
-0.000116934116529
4.35294408219e-06
-0.000119491488343
5.20017320093e-06
-0.000122389228581
5.97022565583e-06
-0.000125582239617
6.62709200206e-06
-0.000129012592776
7.14689183279e-06
-0.000132606351427
7.51753046058e-06
-0.000136282106897
7.73341831238e-06
-0.000139953256016
7.77955925969e-06
-0.000143531272563
7.65479368833e-06
-0.000146931677663
7.37037065125e-06
-0.000150078692773
6.94093891726e-06
-0.000152913783566
6.39341706832e-06
-0.000155400148812
5.76825594668e-06
-0.00015752301536
5.11116260404e-06
-0.000159294713601
4.47494598755e-06
-0.000160756508929
3.91797572331e-06
-0.000161971339542
3.48886121268e-06
-0.000163015617728
3.21265861779e-06
-0.000163966957814
3.09114237861e-06
-0.000164896232841
3.11321940921e-06
-0.000165862111801
3.2553678029e-06
-0.000166907882424
3.48677046885e-06
-0.000168061698635
3.77545582857e-06
-0.000169340018643
4.09414208912e-06
-0.000170746490237
4.41732606938e-06
-0.000172269833881
4.72117458752e-06
-0.00017388597192
4.98468299741e-06
-0.000175565236245
5.19234001444e-06
-0.000177276617748
5.33363910279e-06
-0.000178987257103
5.40573263984e-06
-0.000180663499613
5.41112595895e-06
-0.000182272909065
5.35364588511e-06
-0.000183786341872
5.23816172394e-06
-0.000185177866282
5.06944673582e-06
-0.000186422765873
4.84885059352e-06
-0.000187496026615
4.5746829926e-06
-0.000188369837215
4.24098780016e-06
-0.000189009764565
3.8348397122e-06
-0.000189369711958
3.33173249794e-06
-0.000189385150717
2.68841083241e-06
-0.000188957484544
1.8330050652e-06
-0.000187939448866
6.66626203348e-07
-0.000186183917621
-9.09341809374e-07
-0.000183527928385
-3.05918892611e-06
-0.00017958399846
-5.96665354637e-06
-0.000173907326039
-9.98439237049e-06
-0.000165838665851
-1.54533971073e-05
-0.000154534324798
-2.27200169369e-05
-0.000139001160252
-3.20552907383e-05
-0.000118230391078
-4.3464664001e-05
-9.1585329754e-05
-5.62069659688e-05
-5.96904010258e-05
-6.75550794946e-05
-2.60331195781e-05
-6.97563935103e-05
-4.22087884076e-05
-7.40462956699e-06
2.76261488113e-05
-1.11300178431e-05
7.02904063024e-06
-1.28181749755e-05
5.79146559107e-08
-1.40348592174e-05
-5.30945687358e-07
-1.51738423239e-05
3.33670480512e-07
-1.63083998732e-05
1.29601219946e-06
-1.75571558052e-05
2.11964006335e-06
-1.89498605908e-05
2.77852597629e-06
-2.05126356653e-05
3.32332734202e-06
-2.22601739739e-05
3.79725412742e-06
-2.42065108586e-05
4.23883251606e-06
-2.63688887648e-05
4.67780476282e-06
-2.87696487478e-05
5.13633555315e-06
-3.14377109232e-05
5.63121189845e-06
-3.44007137696e-05
6.16764958657e-06
-3.76664729646e-05
6.72846186337e-06
-4.11994894325e-05
7.26183313167e-06
-4.49023607702e-05
7.67670491258e-06
-4.86123864462e-05
7.86119357291e-06
-5.21370214429e-05
7.73240977825e-06
-5.53059778544e-05
7.27648222819e-06
-5.79605302506e-05
6.49990257243e-06
-6.00043337357e-05
5.4330347759e-06
-6.14196403849e-05
4.18964572021e-06
-6.22520537796e-05
2.88949504355e-06
-6.25705344763e-05
1.58343483591e-06
-6.24230383682e-05
2.76525343373e-07
-6.18386564779e-05
-9.95082311823e-07
-6.08979790676e-05
-2.04194288751e-06
-5.97393610825e-05
-2.8132934499e-06
-5.8531704718e-05
-3.26497752178e-06
-5.73336696274e-05
-3.52783082895e-06
-5.62106120565e-05
-3.62194995556e-06
-5.52282519279e-05
-3.55355713268e-06
-5.44171628261e-05
-3.37622777015e-06
-5.37850876749e-05
-3.11548751298e-06
-5.33232080486e-05
-2.7974206349e-06
-5.30283797016e-05
-2.43244791003e-06
-5.29121468414e-05
-2.0251847688e-06
-5.29937478248e-05
-1.57813327279e-06
-5.3289344263e-05
-1.09260720141e-06
-5.38331372652e-05
-5.50774604177e-07
-5.46810046003e-05
6.17902206725e-08
-5.58119161802e-05
6.67965083051e-07
-5.71414712342e-05
1.23325509007e-06
-5.85743257164e-05
1.73493597233e-06
-6.00694512023e-05
2.19580774724e-06
-6.16369107541e-05
2.63121746712e-06
-6.32679503734e-05
3.02388572301e-06
-6.49442726286e-05
3.35782583975e-06
-6.66547064753e-05
3.62106293733e-06
-6.83859720493e-05
3.8030643466e-06
-7.01201396199e-05
3.89839025544e-06
-7.1835723748e-05
3.91001870638e-06
-7.35115600826e-05
3.84635264803e-06
-7.51274967461e-05
3.72008341932e-06
-7.66644626952e-05
3.54839208199e-06
-7.81064666075e-05
3.3474784425e-06
-7.94407942776e-05
3.12868555109e-06
-8.06603469186e-05
2.90062035582e-06
-8.17655030341e-05
2.67150740801e-06
-8.27601520887e-05
2.44766773942e-06
-8.36461459853e-05
2.22995191894e-06
-8.44240268342e-05
2.0185654714e-06
-8.50964563133e-05
1.81566372237e-06
-8.56689461739e-05
1.62161692965e-06
-8.61513368853e-05
1.43388933492e-06
-8.65530301047e-05
1.24328156987e-06
-8.68774614548e-05
1.04223528464e-06
-8.71262290073e-05
8.34402484333e-07
-8.73022901018e-05
6.28508259409e-07
-8.74087280986e-05
4.3168483563e-07
-8.74492974188e-05
2.48774494169e-07
-8.74285589029e-05
8.14898507932e-08
-8.73457663818e-05
-7.22693411217e-08
-8.72117684148e-05
-2.12459789773e-07
-8.70298789302e-05
-3.49507855051e-07
-8.68103344115e-05
-4.77039690555e-07
-8.65609124798e-05
-5.99432592727e-07
-8.62920281607e-05
-7.14946127076e-07
-8.60148980762e-05
-8.21556962923e-07
-8.57422736973e-05
-9.16176800531e-07
-8.54884487992e-05
-9.94379752686e-07
-8.52694874549e-05
-1.04979893689e-06
-8.51029472076e-05
-1.07455347685e-06
-8.50077490592e-05
-1.05978926365e-06
-8.50036492973e-05
-9.9725883828e-07
-8.51099553007e-05
-8.79846172457e-07
-8.53417126396e-05
-7.03590538321e-07
-8.57055614e-05
-4.66440268949e-07
-8.62084791641e-05
-1.58134607638e-07
-8.68430062673e-05
2.11373229038e-07
-8.75592558778e-05
6.05002768111e-07
-8.83140090651e-05
1.0034978622e-06
-8.911575787e-05
1.39985091843e-06
-8.99909573988e-05
1.77244460371e-06
-9.09359965938e-05
2.0984524949e-06
-9.19245752129e-05
2.37074990524e-06
-9.29120203451e-05
2.58609632235e-06
-9.38598617679e-05
2.73246624181e-06
-9.47369277814e-05
2.7904240133e-06
-9.55167177774e-05
2.73904352288e-06
-9.61772932103e-05
2.56441702937e-06
-9.67052957597e-05
2.26824735636e-06
-9.70923466174e-05
1.86513564734e-06
-9.73273954577e-05
1.3784700962e-06
-9.74093431245e-05
8.42872797747e-07
-9.73485153326e-05
2.96377029525e-07
-9.71471534452e-05
-2.38239639779e-07
-9.68341928918e-05
-7.32795173351e-07
-9.64688633783e-05
-1.16905372326e-06
-9.61197823488e-05
-1.50468767099e-06
-9.58680453396e-05
-1.7105740985e-06
-9.57937235659e-05
-1.75129974996e-06
-9.59671909441e-05
-1.60071375774e-06
-9.64444265013e-05
-1.24221561217e-06
-9.72763639255e-05
-6.55465001582e-07
-9.85022943525e-05
1.7267605048e-07
-0.000100039129653
1.14696757059e-06
-0.000101814014276
2.22862979367e-06
-0.000103769767583
3.40638656042e-06
-0.000105993284835
4.6421136394e-06
-0.000108508133868
5.87937207674e-06
-0.000111233266836
7.07319676369e-06
-0.000114060482558
8.14836811101e-06
-0.000116931064083
8.98335646247e-06
-0.000119804276907
9.47635059673e-06
-0.000122633525171
9.58736098502e-06
-0.000125340184273
9.31676088357e-06
-0.000127808792717
8.68199263117e-06
-0.000129955886596
7.747575596e-06
-0.000131725913948
6.60875248454e-06
-0.00013310026137
5.36689479092e-06
-0.0001340961726
4.1034994186e-06
-0.000134759114516
2.89204679928e-06
-0.000135146098314
1.80582714233e-06
-0.000135318404501
9.13389536384e-07
-0.000135347196155
2.68439913825e-07
-0.000135315202068
-9.49768095343e-08
-0.000135319982863
-1.38706573528e-07
-0.000135422800671
1.15598840231e-07
-0.000135706877257
6.60517985715e-07
-0.000136209658043
1.4619304257e-06
-0.000136963552881
2.46913188142e-06
-0.000137990415159
3.59474027516e-06
-0.000139298167814
4.76876170611e-06
-0.000140877889067
5.93020488461e-06
-0.000142701352507
7.0229211911e-06
-0.000144726868299
7.99686122876e-06
-0.000146904844174
8.80786918484e-06
-0.000149177755555
9.4239201755e-06
-0.000151481066906
9.82586711334e-06
-0.00015374875552
1.00067888532e-05
-0.000155922773363
9.95981422249e-06
-0.000157946640885
9.68538012159e-06
-0.00015976455221
9.19530128346e-06
-0.000161325679076
8.50904023228e-06
-0.000162587373743
7.66158373418e-06
-0.00016352156934
6.70797867651e-06
-0.000164125076814
5.71889102951e-06
-0.000164425445271
4.77795794557e-06
-0.000164481582572
3.97495716567e-06
-0.00016437429312
3.38049900054e-06
-0.000164185731329
3.02119207874e-06
-0.000163982332356
2.88330586833e-06
-0.000163814138518
2.93950327964e-06
-0.000163716526267
3.15164135232e-06
-0.000163709567646
3.47355051247e-06
-0.000163798874327
3.85870470833e-06
-0.000163980192502
4.26987335956e-06
-0.000164241013841
4.6732436031e-06
-0.00016456254351
5.03867560402e-06
-0.000164921441415
5.340607148e-06
-0.000165291624398
5.56071930954e-06
-0.000165647685053
5.68906725691e-06
-0.000165965845239
5.72430596297e-06
-0.000166225055879
5.67154596661e-06
-0.000166407633557
5.53787854554e-06
-0.000166499316801
5.33155107497e-06
-0.000166489179606
5.06072966564e-06
-0.000166369992751
4.73055229604e-06
-0.000166137790829
4.34264260218e-06
-0.000165790107922
3.89259232004e-06
-0.000165323120977
3.36620968228e-06
-0.000164727443818
2.73355638585e-06
-0.000163984095347
1.94193002964e-06
-0.000163046060231
8.91590566478e-07
-0.000161832023417
-5.50518860383e-07
-0.000160313451849
-2.43035608715e-06
-0.000158304668512
-5.06940706715e-06
-0.00015548397066
-8.78755765367e-06
-0.000151449635499
-1.40177288445e-05
-0.000145633103037
-2.12679709018e-05
-0.000137262704346
-3.10879308065e-05
-0.000125367158338
-4.3948408414e-05
-0.000108875871998
-5.99541933663e-05
-8.69029259475e-05
-7.81792931369e-05
-5.93252256447e-05
-9.51333793265e-05
-2.78898819024e-05
-0.000101192882079
-7.00970169986e-05
-6.4982822685e-06
3.41239557406e-05
-1.046361969e-05
1.0992780695e-05
-1.28298732829e-05
2.42266436288e-06
-1.47913476476e-05
1.43001948461e-06
-1.64494999862e-05
1.99146575229e-06
-1.80521785368e-05
2.89839989924e-06
-1.9704653143e-05
3.77184877648e-06
-2.14591047806e-05
4.5327238652e-06
-2.33587672329e-05
5.22269620965e-06
-2.5440052071e-05
5.87821800337e-06
-2.77384295682e-05
6.53679917423e-06
-3.02926289267e-05
7.23121637401e-06
-3.3142242731e-05
7.98404532095e-06
-3.63173540034e-05
8.80182403836e-06
-3.98217493941e-05
9.66274183731e-06
-4.36144740372e-05
1.05046527192e-05
-4.75926208455e-05
1.12132632638e-05
-5.15872184632e-05
1.16306022952e-05
-5.5392524632e-05
1.16100000651e-05
-5.88339549298e-05
1.11023762244e-05
-6.17576394308e-05
1.01170835197e-05
-6.40265595568e-05
8.67767858498e-06
-6.56236238683e-05
6.93504307321e-06
-6.66268406666e-05
5.09688904563e-06
-6.71798691279e-05
3.34915380461e-06
-6.74082946813e-05
1.72655266133e-06
-6.73297952563e-05
1.25510467481e-07
-6.69713346238e-05
-1.40993740706e-06
-6.64255177986e-05
-2.63000375621e-06
-6.58343277604e-05
-3.43624123337e-06
-6.52972261319e-05
-3.82461698474e-06
-6.48816145283e-05
-3.95887512249e-06
-6.46273449838e-05
-3.88681417097e-06
-6.45459120687e-05
-3.64264216451e-06
-6.46528235651e-05
-3.27525559539e-06
-6.49509392512e-05
-2.82211947434e-06
-6.5441985013e-05
-2.3102286546e-06
-6.61298901849e-05
-1.74756237513e-06
-6.70220470841e-05
-1.13533406751e-06
-6.81288016212e-05
-4.73410400501e-07
-6.94454302418e-05
2.21776215196e-07
-7.0917470871e-05
9.18861406422e-07
-7.2420854104e-05
1.56336949384e-06
-7.39063288397e-05
2.15284336705e-06
-7.53917706204e-05
2.71834880982e-06
-7.69087307722e-05
3.25088203301e-06
-7.84556241875e-05
3.74042039572e-06
-8.00140456711e-05
4.18572012458e-06
-8.15746036957e-05
4.57870334155e-06
-8.31291126298e-05
4.90475034811e-06
-8.46670076764e-05
5.14972739105e-06
-8.61779127655e-05
5.30359773327e-06
-8.76517501255e-05
5.36141724864e-06
-8.90778868777e-05
5.32565402624e-06
-9.04461493922e-05
5.2051129855e-06
-9.17473023196e-05
5.01322098359e-06
-9.29720049249e-05
4.76675886531e-06
-9.41130812212e-05
4.48381883913e-06
-9.51641914035e-05
4.17646389045e-06
-9.61185901265e-05
3.85289047332e-06
-9.6969137536e-05
3.52094673853e-06
-9.7708744001e-05
3.18700681945e-06
-9.83371335783e-05
2.85868253213e-06
-9.88650705591e-05
2.54708036132e-06
-9.93106102812e-05
2.26157383542e-06
-9.96893714155e-05
2.00039996869e-06
-0.000100006990836
1.75142637631e-06
-0.000100260591961
1.49689319361e-06
-0.000100446766286
1.22859244043e-06
-0.000100569743137
9.5767209831e-07
-0.000100638209106
6.97188686153e-07
-0.000100661751791
4.55183402626e-07
-0.000100648805351
2.35398298603e-07
-0.000100605852054
3.76573133286e-08
-0.000100541985344
-1.37532798279e-07
-0.000100464380215
-2.92130395207e-07
-0.000100388857454
-4.27775991274e-07
-0.000100322524635
-5.46766810285e-07
-0.000100273131259
-6.52822267835e-07
-0.000100248098707
-7.44486030136e-07
-0.000100254515537
-8.20040740505e-07
-0.000100299294286
-8.7660153994e-07
-0.000100389624216
-9.09535083558e-07
-0.000100532943713
-9.12267656119e-07
-0.000100735613482
-8.77912324943e-07
-0.000101001383556
-8.00032058261e-07
-0.000101330586543
-6.73670247329e-07
-0.000101721348817
-4.94022721027e-07
-0.000102171096066
-2.57992637419e-07
-0.000102664545549
2.37084422189e-08
-0.000103201260334
3.76077877617e-07
-0.000103760947794
7.68777437426e-07
-0.000104352626419
1.19471720297e-06
-0.000104998537291
1.64800532885e-06
-0.000105698815458
2.09946886709e-06
-0.000106444600182
2.5184767298e-06
-0.000107220669345
2.875806453e-06
-0.000108000117991
3.15257420199e-06
-0.000108747696603
3.33706818979e-06
-0.000109428392824
3.41743824806e-06
-0.000110018491711
3.38542046802e-06
-0.000110507894844
3.23364729066e-06
-0.000110893387572
2.95515212425e-06
-0.000111175821512
2.555572204e-06
-0.000111358361083
2.05171166664e-06
-0.000111447388062
1.47030087932e-06
-0.000111451232315
8.48047869206e-07
-0.000111379986033
2.24888787177e-07
-0.000111259118689
-3.60945285933e-07
-0.000111143047525
-8.52516096727e-07
-0.000111088345146
-1.2291271263e-06
-0.000111142962194
-1.45708196192e-06
-0.000111349932107
-1.5121002781e-06
-0.000111741716814
-1.36917267701e-06
-0.000112337812214
-1.01489116013e-06
-0.000113155162387
-4.34943299772e-07
-0.000114186277299
3.66718944029e-07
-0.000115371852121
1.35016907743e-06
-0.000116722390678
2.48990745831e-06
-0.000118266131805
3.76601043885e-06
-0.000120001186824
5.13690636307e-06
-0.000121897374118
6.53624598134e-06
-0.000123907290374
7.89017403556e-06
-0.00012595146477
9.12131416134e-06
-0.000127939745905
1.01434534958e-05
-0.000129813137598
1.08659481171e-05
-0.00013153814064
1.12122971216e-05
-0.000133097724259
1.11589154299e-05
-0.000134457975935
1.06893073737e-05
-0.00013558088667
9.8167521347e-06
-0.000136436034017
8.6132660614e-06
-0.000137005404652
7.18651789506e-06
-0.000137288370684
5.65564356989e-06
-0.000137317796777
4.13597105311e-06
-0.000137157991957
2.73251561063e-06
-0.000136886224364
1.53151019406e-06
-0.000136583389328
6.05221704323e-07
-0.000136320319271
-2.44332503134e-09
-0.000136173073289
-2.52039748543e-07
-0.000136166410021
-1.56718316588e-07
-0.000136311719828
2.49120853678e-07
-0.000136604032234
9.41002076669e-07
-0.000137052424384
1.89877132327e-06
-0.000137651622643
3.0574971696e-06
-0.000138405462488
4.33910408829e-06
-0.000139307791007
5.66373071161e-06
-0.000140340368916
6.9581751109e-06
-0.000141472813228
8.15379489294e-06
-0.000142663014186
9.18836354593e-06
-0.000143862293852
1.00108559066e-05
-0.000145018151393
1.05853280386e-05
-0.000146079151381
1.08938035995e-05
-0.000146999744375
1.09355018574e-05
-0.00014775020538
1.07196131652e-05
-0.000148309559971
1.02554261048e-05
-0.00014865401364
9.5517727461e-06
-0.000148756799584
8.62468043501e-06
-0.000148590225683
7.50770885962e-06
-0.000148138939566
6.26818924637e-06
-0.000147412229547
5.00161502269e-06
-0.00014644620172
3.81855880305e-06
-0.00014531195102
2.84391044896e-06
-0.000144109247053
2.17727722535e-06
-0.000142940291936
1.84812255553e-06
-0.000141865953011
1.80178184257e-06
-0.000140923482778
1.98760016166e-06
-0.000140130405706
2.34785912643e-06
-0.000139480285926
2.81241150777e-06
-0.000138955073503
3.32296936802e-06
-0.00013853460514
3.84001319787e-06
-0.000138192788205
4.32361968736e-06
-0.000137898198237
4.73813432833e-06
-0.000137620115414
5.05853165486e-06
-0.000137331187682
5.26971590325e-06
-0.00013700846678
5.36602488629e-06
-0.000136634320572
5.3513322996e-06
-0.000136196211332
5.23577366244e-06
-0.000135687303432
5.03209115695e-06
-0.000135106035788
4.75378121611e-06
-0.000134455873062
4.41404454195e-06
-0.000133743148539
4.02091388761e-06
-0.000132973529402
3.57537968762e-06
-0.000132155089485
3.07548035704e-06
-0.00013130338191
2.51458433255e-06
-0.000130436686484
1.86563992257e-06
-0.000129567501754
1.07039446548e-06
-0.000128741868013
6.28716618344e-08
-0.000127968263956
-1.32744614085e-06
-0.000127179099191
-3.22251608755e-06
-0.000126243529393
-6.00720533371e-06
-0.000124956532456
-1.00757480624e-05
-0.000123017746935
-1.59566687743e-05
-0.000119956898503