/*--------------------------------*- C++ -*----------------------------------*\
  =========                 |
  \\      /  F ield         | OpenFOAM: The Open Source CFD Toolbox
   \\    /   O peration     | Website:  https://openfoam.org
    \\  /    A nd           | Version:  12
     \\/     M anipulation  |
\*---------------------------------------------------------------------------*/
FoamFile
{
    format      ascii;
    class       volScalarField;
    location    "10";
    object      rho;
}
// * * * * * * * * * * * * * * * * * * * * * * * * * * * * * * * * * * * * * //

dimensions      [1 -3 0 0 0 0 0];

internalField   nonuniform List<scalar> 
40000
(
1.15857144489
1.18356663691
1.18827762262
1.18928259025
1.18951730825
1.18957950319
1.189598358
1.18960492303
1.18960747408
1.18960884233
1.18960975389
1.18961057823
1.18961172087
1.18961350874
1.18961580089
1.18961917567
1.18962562855
1.18963834728
1.18965941118
1.18969305405
1.18974832744
1.1898425613
1.19000355969
1.19024591127
1.19054797654
1.19091504941
1.19136390202
1.19190702695
1.19253941769
1.19325450492
1.19403203457
1.19486068114
1.19571493402
1.19653962498
1.19734179651
1.19811232974
1.19884159223
1.19952415662
1.20015543962
1.20073270049
1.20125624823
1.20172774465
1.20215250222
1.20253489135
1.20287615894
1.20317972271
1.20345312489
1.2037048101
1.20395588844
1.20421752815
1.20451356137
1.20482413257
1.20514584587
1.20549223129
1.20585645024
1.20623812304
1.20663681515
1.20705022355
1.20748026272
1.2079266104
1.20838634358
1.20885928831
1.20934489215
1.20984248396
1.21035189621
1.21086499097
1.21137409313
1.21187441049
1.21236503054
1.2128492558
1.21333081981
1.21380762339
1.21427516604
1.21472765492
1.21516326004
1.21558114722
1.21598103655
1.21636550853
1.21673420835
1.21708589796
1.21741571837
1.21772292765
1.21800976676
1.2182755077
1.21852120165
1.21875242366
1.2189728199
1.21918227844
1.21938304796
1.21957856126
1.21976738832
1.21994536227
1.22011127439
1.22026610018
1.22040995521
1.22054275101
1.22066673675
1.22078595977
1.22090223301
1.22101590778
1.22112852292
1.22124105472
1.22135446874
1.22146756421
1.22157592643
1.22167798706
1.22176965463
1.22185057091
1.221926811
1.22200295641
1.2220725545
1.22212118567
1.22214387473
1.22214965837
1.22214933943
1.22214851092
1.22215243582
1.2221634587
1.22217956061
1.22220087882
1.22222861151
1.22226439053
1.22231013763
1.22236478316
1.22243369016
1.22252547331
1.22264843808
1.22278696695
1.22292411511
1.22304237066
1.2231375077
1.22322645726
1.22330316099
1.22336914155
1.22342492196
1.22347493248
1.22352569066
1.22357873626
1.2236367427
1.22370099824
1.22377236
1.22384978409
1.22393047112
1.22401378351
1.22409503969
1.22417275434
1.2242462118
1.22431736214
1.22439582818
1.22449326591
1.22459459187
1.22469090893
1.22478057734
1.22486301194
1.2249392041
1.22501132603
1.22508146404
1.22515187932
1.22522426868
1.225299618
1.22537859605
1.22546148199
1.22554787098
1.22563728361
1.22572938389
1.22582375457
1.22591986531
1.22601712501
1.22611480551
1.22621217579
1.22630872954
1.22640414953
1.22649825616
1.22659101567
1.22668252062
1.22677302147
1.2268629108
1.2269526921
1.22704295385
1.22713432333
1.22722744328
1.22732297239
1.22742149206
1.22752331888
1.22762838901
1.22773628482
1.22784631166
1.22795760961
1.22806926967
1.22818047112
1.22830751496
1.22850404245
1.22880383538
1.22925179571
1.22991166379
1.23087606738
1.23228598364
1.23437875473
1.2376552563
1.24409996446
1.15676059834
1.18346462875
1.18838216657
1.18936573903
1.18955489241
1.18959420241
1.18960264291
1.18960345976
1.18960302515
1.18960289092
1.18960242231
1.18960170241
1.18960313678
1.18961051684
1.18963130237
1.1896744365
1.18975523919
1.189896745
1.19010477038
1.19040229975
1.19082486168
1.19139531629
1.19212337132
1.19300760697
1.1940249932
1.19515914635
1.19639198736
1.19769664602
1.19901605765
1.2002687052
1.20141482778
1.20242715801
1.20330687803
1.20404953682
1.20466160642
1.20516822797
1.20558825328
1.20592768278
1.20619916602
1.20641457631
1.20658210107
1.20671808578
1.20682842622
1.20691114565
1.20697787219
1.20705047528
1.20714601341
1.20726649347
1.20742531545
1.20763698959
1.20791128394
1.20824128683
1.2086241085
1.20905348168
1.2095213229
1.21002161765
1.21054536972
1.21108371641
1.21162814583
1.2121698398
1.21270100718
1.21321527655
1.21370697362
1.21417194133
1.21460765747
1.21501358832
1.21539159681
1.21574500535
1.21607627784
1.21638713059
1.21668015949
1.21695876357
1.21722466309
1.21747712725
1.21771431089
1.2179341742
1.2181364301
1.21832295456
1.21849590117
1.21865762239
1.21881010565
1.21895497635
1.21909437197
1.2192307977
1.21936611079
1.21950051677
1.21963341827
1.21976493492
1.21989525236
1.22002448171
1.22015277856
1.22027991884
1.22040391816
1.2205176565
1.22061002638
1.22067743369
1.22073186649
1.22078603029
1.22084205092
1.22089454923
1.22094092186
1.22098064899
1.22101382891
1.22104020721
1.22106007719
1.22107350193
1.22107928865
1.22107622747
1.22106554193
1.22105000248
1.22103766191
1.22103530254
1.22104752002
1.22107853221
1.22113198733
1.22121098252
1.22131704246
1.22144638762
1.22158463892
1.2217046007
1.22178610187
1.22185279951
1.22192959075
1.22200381199
1.22206477451
1.22210853609
1.22213441746
1.22214243058
1.22213448821
1.22211486806
1.22208995945
1.22206655842
1.22204875086
1.22203965528
1.22204141159
1.22205544455
1.22208208313
1.22212048118
1.22216896491
1.22222416278
1.2222854808
1.22234742411
1.22240999161
1.22246864024
1.22251988744
1.2225606067
1.22258817335
1.22260115735
1.22259962342
1.22258424521
1.22255563587
1.22251544282
1.22246551956
1.22240767091
1.22234437335
1.22227836593
1.22221223648
1.22214863315
1.22209022683
1.22203924723
1.22199711759
1.22196441709
1.22194071143
1.22192427194
1.221912679
1.22190327261
1.22189320036
1.22187957646
1.22185965003
1.22183105578
1.22179199883
1.22174135986
1.22167865551
1.22160406259
1.2215185975
1.2214240945
1.22132256647
1.22121586516
1.22110580859
1.22099420811
1.22088288163
1.22077377355
1.22066888814
1.22056991922
1.22047777249
1.2203925975
1.22031480733
1.22024652351
1.22019274183
1.2202010996
1.22032611804
1.22056805003
1.22097997751
1.22163845362
1.22265185596
1.22417425045
1.22642887251
1.22975162718
1.23468423916
1.24233724247
1.15487314383
1.18296228694
1.18837318292
1.1893729207
1.18955632539
1.18958945436
1.18959510102
1.1895955149
1.18959522363
1.18959519916
1.18959633824
1.18960088992
1.1896111984
1.18963377409
1.18969034727
1.18981694359
1.19005695463
1.19044988412
1.19103292022
1.19184198288
1.19289140885
1.19417974302
1.19568249055
1.19734137188
1.19908884489
1.2008728636
1.20263292233
1.20428641673
1.20572867099
1.20691103494
1.20785118402
1.20858728332
1.20914451763
1.20955688307
1.20986171489
1.2100926094
1.21027565014
1.21042365661
1.21053531124
1.21060572956
1.21063517322
1.21063323753
1.21061542841
1.21060880462
1.21062818658
1.21067405531
1.21074435073
1.21084933276
1.21100462946
1.21122569152
1.21151831461
1.21187739749
1.21229115813
1.21274373042
1.21321668553
1.21369027744
1.21414738497
1.21457840698
1.21497959881
1.21534790246
1.21568066336
1.21597730675
1.21624019723
1.21647269212
1.21667842311
1.21686020167
1.21702144553
1.21716699857
1.21730094173
1.21742445985
1.21753744831
1.21764082981
1.21773621092
1.21782442371
1.21790537299
1.21798007811
1.21805257514
1.21812626816
1.21820372
1.21828656061
1.21837552671
1.21847104907
1.21857321045
1.21868167553
1.21879549331
1.21891279977
1.21903069982
1.21914565922
1.21925430144
1.21935413397
1.21944368009
1.21952072334
1.2195841678
1.21963763972
1.21967991293
1.21970749449
1.21972002448
1.21971904187
1.21970592538
1.21968071924
1.21964351526
1.21959525273
1.21953802993
1.21947500921
1.21941024859
1.21934801778
1.2192921141
1.21924628724
1.2192144043
1.21920311454
1.2192213446
1.21927129678
1.21935213009
1.21946059736
1.21959134312
1.21973754106
1.21988993219
1.22003509539
1.22015578809
1.22025661828
1.22034185591
1.22040189329
1.22043226029
1.22042891702
1.22038718102
1.22030463893
1.22018373432
1.22003242553
1.21986274526
1.21968789539
1.21951995352
1.21936902103
1.21924150951
1.21914077467
1.21906795988
1.21902304515
1.21900643193
1.21901826119
1.2190558443
1.21911381619
1.21918403894
1.21925555558
1.21932085044
1.21937128822
1.21939968943
1.21940122802
1.21937194362
1.21930846725
1.21920887843
1.21907344735
1.21890515265
1.21870927007
1.21849180098
1.21825784504
1.21801206539
1.21775933828
1.21750545758
1.21725751623
1.2170231323
1.2168089468
1.21661983887
1.21645849335
1.21632526776
1.2162178594
1.21613123686
1.21605832778
1.21599096376
1.21592116818
1.21584222752
1.21574918379
1.21563862291
1.21550843391
1.21535752414
1.2151856793
1.21499374222
1.21478381947
1.21455910219
1.21432367425
1.2140823665
1.21384034637
1.21360239759
1.21337280098
1.21315572983
1.21295544735
1.21277632956
1.21262313503
1.21250179691
1.21242064271
1.21241399858
1.21251142359
1.21271241835
1.21306180711
1.21362950744
1.2145176671
1.21587256359
1.21790181257
1.22090009666
1.22529111605
1.23170922985
1.24132491874
1.15323901463
1.18244955689
1.18828299752
1.18937111582
1.18955470665
1.18958649623
1.18959259442
1.18959391446
1.18959414621
1.18959614365
1.18959984127
1.18960748955
1.18962871138
1.18968713248
1.18982660552
1.19010558322
1.19057896799
1.19130375705
1.19234741943
1.19373214234
1.19542314818
1.19733744587
1.19938720825
1.20147389187
1.20352286755
1.20546036063
1.20718395461
1.20860503243
1.20968294726
1.21048106435
1.21107532433
1.21149872225
1.21179081271
1.21199255068
1.212138681
1.21225213863
1.21234399468
1.21242147377
1.21248732003
1.21254509836
1.2126043768
1.21267417779
1.21274813574
1.21281455451
1.21288037083
1.2129593354
1.21306360948
1.21320131504
1.21337719477
1.21359183411
1.21384179925
1.21411944552
1.21441255368
1.21470651435
1.21498702111
1.21524180579
1.21546264077
1.21564641529
1.21579447055
1.21591031061
1.21599801277
1.21606171269
1.21610551126
1.21613390619
1.21615284115
1.21616905437
1.21618574409
1.21620134748
1.21621441315
1.21622464413
1.21623327949
1.21624296382
1.2162562111
1.2162748283
1.21629980651
1.21633400285
1.21637884682
1.21643442412
1.21650031055
1.21657593089
1.21666011315
1.21675127169
1.21684800282
1.21694956061
1.21705553543
1.21716436806
1.21727198057
1.21737249389
1.21746096749
1.21753425515
1.21758998876
1.21763498988
1.21767305167
1.2176995979
1.21771173227
1.21770737639
1.21768511068
1.21764431352
1.21758525562
1.21750955177
1.21741971536
1.21732004475
1.21721605205
1.21711314128
1.21701824304
1.2169393801
1.21688298972
1.21685333339
1.21685221491
1.21688323055
1.21694616448
1.21703779624
1.21715421705
1.21729010218
1.21743742463
1.21758495295
1.21771773491
1.21782574107
1.21792149002
1.21799329016
1.2180314086
1.21802772728
1.21797422961
1.21786561235
1.2177003677
1.21748110573
1.217215446
1.21691541797
1.21659532653
1.21627016033
1.21595598349
1.21566902732
1.21542380307
1.21522942658
1.21508988413
1.2150059175
1.21497573922
1.21499428213
1.21505222449
1.2151422555
1.21524275926
1.21533934064
1.21542126404
1.21547870269
1.21550205411
1.21548240611
1.215411507
1.21528347258
1.21509658888
1.21485406698
1.2145628662
1.2142318507
1.21386986373
1.2134841895
1.21308086378
1.21266568466
1.21224599498
1.21183294131
1.21144142461
1.21108586069
1.21077731261
1.21052302989
1.2103255843
1.21018140187
1.21008131191
1.2100124411
1.20995983334
1.20990832187
1.20984456945
1.20975839078
1.2096426546
1.20949322281
1.20930882131
1.20909073431
1.20884234458
1.20856865186
1.20827576622
1.20797040808
1.20765966611
1.20735070031
1.2070504203
1.20676548777
1.20650244343
1.20626795785
1.206068927
1.20591245819
1.20580621941
1.20576077408
1.20581913449
1.20595743073
1.20620922461
1.20662950616
1.20730232663
1.20835228205
1.20996004449
1.2123817209
1.21597741473
1.2212612341
1.22900955353
1.24072554811
1.15180858288
1.18195065291
1.18818734778
1.18935799453
1.18956054314
1.18959199311
1.18959804138
1.18959954301
1.18960012823
1.18960142998
1.18960579138
1.18962092597
1.1896687441
1.1897923695
1.19005451758
1.19052378538
1.19126254244
1.192341873
1.19380719449
1.19564774798
1.19776280783
1.20000410192
1.20224587745
1.20440523695
1.2063900078
1.20811867418
1.20953696277
1.21061201353
1.21139040074
1.21195373629
1.21235159245
1.21262081511
1.21280887155
1.21295322894
1.2130816437
1.21319769763
1.21329699362
1.21338518288
1.2134709093
1.21355770367
1.21363892549
1.21370868965
1.21377345816
1.2138388755
1.21390876065
1.21398631162
1.21407425071
1.21417406642
1.21428565964
1.21440671055
1.21453221698
1.2146540851
1.21476153304
1.21484371266
1.21489447012
1.21491521145
1.2149120238
1.21488817435
1.21484388669
1.21478104686
1.21470394898
1.21461795343
1.21452874019
1.21444133679
1.21435934822
1.21428417934
1.21421571991
1.21415384589
1.2140996631
1.21405520564
1.21402229635
1.21400199206
1.2139946576
1.21400045301
1.21401906582
1.21405095224
1.21409348829
1.21414481845
1.21420347111
1.21426815591
1.21433736555
1.21440973622
1.21448410802
1.2145595087
1.21463518895
1.21471052287
1.21478436043
1.21485426762
1.21491699015
1.21497316555
1.2150277481
1.21507431468
1.21510595901
1.21511841928
1.2151089931
1.21507696553
1.21502302882
1.21494896673
1.2148575287
1.21475245594
1.2146388433
1.21452332717
1.21441340969
1.21431632478
1.21423843634
1.21418505108
1.21416016341
1.21416552803
1.21419942964
1.21425908397
1.21433707882
1.21442667999
1.21452300233
1.21462293337
1.21472342306
1.21481915055
1.21490686211
1.21499000977
1.21504753882
1.21506611832
1.21503545628
1.21494548218
1.2147865659
1.21455296537
1.2142468689
1.21387846779
1.21346215307
1.21301403379
1.21255095032
1.21209326783
1.21166546517
1.2112917985
1.21099296537
1.21078556389
1.21068214221
1.21068545134
1.21078080764
1.21094166176
1.21114676898
1.21135157482
1.21152360163
1.21165853631
1.21175378773
1.21180501522
1.21180601997
1.21174959186
1.21162854538
1.21143721999
1.21117468117
1.21084452238
1.21045290102
1.21000799619
1.20951928668
1.20899581137
1.20844507079
1.20787397822
1.20729066276
1.20670817876
1.20614731993
1.20563303306
1.20518773761
1.2048300131
1.20457151895
1.20441346514
1.20434539067
1.2043494295
1.20440183147
1.20447521475
1.20454296753
1.20458115293
1.2045696334
1.20449533899
1.20435428946
1.20415017244
1.20389111079
1.20358667698
1.20324752947
1.20288555833
1.20251362405
1.20214456261
1.20178973956
1.20145800904
1.20115589944
1.20088955262
1.20066595479
1.20049381631
1.20038377608
1.20037065714
1.20042403672
1.20056071704
1.20081804689
1.20125587825
1.2019684075
1.20310044511
1.20486579213
1.20756636593
1.21162529131
1.21765239301
1.22658948744
1.24033657264
1.15055290353
1.18148622189
1.18808482127
1.18934268958
1.18956179591
1.18959656554
1.18960171099
1.18960202904
1.1896023853
1.18960463745
1.18961385536
1.18964626116
1.18973757129
1.1899420949
1.19032997366
1.19097451292
1.19195262441
1.19332326081
1.19510650618
1.19723217115
1.19955468452
1.20189882353
1.20413895786
1.20618309112
1.20794293026
1.20937957916
1.21049395822
1.21132939869
1.21194446583
1.21239225894
1.21270727876
1.21292192447
1.21306908302
1.21318219242
1.2132906771
1.21339899866
1.21349325317
1.21356806301
1.21363151021
1.21369202931
1.21374947038
1.21380123038
1.21384612148
1.21388322571
1.21391118491
1.21392876836
1.21393582573
1.21393279262
1.21391926617
1.2138937418
1.21385533258
1.21380288889
1.2137322328
1.21363871266
1.21352251606
1.2133858555
1.21323563672
1.21307950769
1.21292071907
1.21276022767
1.21260021859
1.21244593923
1.21230270109
1.21217346694
1.21205985459
1.21196332339
1.21188379479
1.21181896186
1.21176586297
1.21172319787
1.21169088751
1.21166941223
1.21165884411
1.2116586443
1.21167059413
1.21169097305
1.21171661167
1.21174591764
1.21177805225
1.21181208907
1.21184744836
1.21188428888
1.21192305914
1.21196382339
1.21200609362
1.2120488377
1.2120903844
1.21212863621
1.21216705905
1.21220488326
1.21223524944
1.21225289074
1.21225413679
1.21223719423
1.21220142087
1.21214664634
1.21207342766
1.21198371569
1.21188158992
1.21177284466
1.21166497046
1.21156620142
1.21148438725
1.21142577558
1.21139423521
1.21139205558
1.21142123866
1.21148248514
1.21157298011
1.2116832927
1.21180147679
1.21191694281
1.21202137517
1.21210802196
1.21217109891
1.21221138949
1.21223211101
1.21221644347
1.21215420174
1.2120415346
1.21187710439
1.21165517033
1.2113636282
1.21099184322
1.21053726851
1.21000622951
1.20941235504
1.20877643501
1.20812224021
1.20747831233
1.20687965823
1.20636665867
1.20598360188
1.20577226258
1.20576383757
1.20596744538
1.2063736193
1.20691318555
1.20745267867
1.20790315905
1.20826173174
1.20853182464
1.20870215412
1.2087714949
1.20874742934
1.20863994245
1.20845295623
1.20818776084
1.20784956638
1.20744619426
1.20698177633
1.20645594809
1.2058716927
1.2052341244
1.20455070547
1.20383134951
1.20308845305
1.20233852557
1.20160624831
1.20092274421
1.20032076577
1.19986194595
1.19956164704
1.19940155297
1.19935172369
1.19940356718
1.19952573965
1.19967859023
1.19984059017
1.19998814946
1.20009579257
1.20014354463
1.20011941657
1.20002039646
1.19985157303
1.19962291937
1.19934690717
1.19903568455
1.19869767839
1.19834270955
1.19798221218
1.19762736557
1.19728954751
1.19698174965
1.19671580938
1.19651361105
1.19639749039
1.19634095485
1.19633558673
1.19640578224
1.19659483239
1.19697362107
1.1976414501
1.19876244421
1.2005840226
1.20344894188
1.20783963234
1.21446912691
1.22445866743
1.24007443615
1.14943903201
1.18104910082
1.1879811308
1.18932238392
1.18956280773
1.18959822089
1.18960339675
1.18960373918
1.18960438069
1.18960814482
1.18962291666
1.18967188506
1.18980013185
1.19006812514
1.19055241706
1.19133541234
1.19249991476
1.1940878106
1.19607554998
1.19835485358
1.2007555883
1.20309716649
1.20524293365
1.20708544053
1.20857106741
1.20971477434
1.21056752479
1.21121872611
1.21173544971
1.21214212082
1.21245566482
1.21269616517
1.212876707
1.21300464249
1.21308376617
1.21312037161
1.21313185811
1.21313977939
1.21315672973
1.21317860659
1.21319150865
1.21318503361
1.21315174449
1.21309247985
1.21301224061
1.21291600152
1.21280754769
1.21268687967
1.21255314944
1.21240514571
1.21224401333
1.21206899796
1.21187700697
1.21166626228
1.21143753928
1.21119318029
1.21093954153
1.21068718918
1.2104463519
1.21022549454
1.21003000626
1.20986108357
1.20971636822
1.20959125433
1.20948358984
1.20939558332
1.20932951064
1.20928377494
1.20925511915
1.20924092747
1.20923955621
1.20925024294
1.20927401806
1.20931318656
1.20936106221
1.20941003426
1.20945617846
1.20949706696
1.20953108997
1.20955747263
1.20957603398
1.20958715506
1.20959161868
1.20959038228
1.20958449178
1.20957513164
1.20956384197
1.20955585274
1.20954898053
1.20953815845
1.20951849985
1.20948504218
1.20943411999
1.20936431378
1.20927551331
1.20916773529
1.20904280392
1.20890478687
1.20875974639
1.20861585137
1.20848341991
1.20837422391
1.20830147252
1.20827785982
1.20831234126
1.20840904936
1.20856704914
1.208777703
1.20902352735
1.20927873807
1.20951574188
1.20971865838
1.20987759399
1.20999064737
1.21006184676
1.21009108017
1.21006749358
1.2099805749
1.20982295301
1.20959296379
1.2092956208
1.20893641264
1.20851246579
1.20801515983
1.2074406906
1.20679339958
1.20608513892
1.20533530914
1.20456428503
1.20379628182
1.20306336313
1.20240568339
1.20187128363
1.20151725424
1.20141359038
1.20158337102
1.20196619855
1.20247715635
1.20307969754
1.20373122409
1.20439209528
1.20502463473
1.20557858128
1.20600609089
1.20626906583
1.20635083321
1.20625908135
1.20601946877
1.20566795489
1.20523504503
1.20473337905
1.20416696584
1.20355225016
1.20290251263
1.20222267815
1.20151915435
1.2008030551
1.20008720211
1.19938412122
1.19873763462
1.19820261817
1.1977700387
1.19742040838
1.19714160946
1.19691291835
1.19672776254
1.19661419257
1.1965789887
1.19659024495
1.1966335364
1.19670268094
1.19677955321
1.19683269344
1.19684584834
1.19680893599
1.19671989257
1.19658151959
1.19639950286
1.19618007416
1.19592773011
1.1956470695
1.19534376645
1.19502162699
1.19471334715
1.19445448432
1.19424957422
1.19407206698
1.19390793403
1.19376190023
1.19365152817
1.19363589628
1.19385131928
1.19436384807
1.1953636385
1.19713182197
1.20004267871
1.20463143075
1.21172173506
1.2226264004
1.23989542583
1.14843766141
1.18062941714
1.18787165597
1.18929963445
1.18956146952
1.18960008067
1.18960463533
1.18960582278
1.18960715665
1.18961207084
1.18962982305
1.1896867715
1.18983441606
1.19014133772
1.19068891978
1.19156262493
1.19284798743
1.1945749869
1.19668340574
1.19904389958
1.2014728715
1.20378737993
1.2058400105
1.20753099761
1.20884041791
1.20980039967
1.21046798266
1.21094030111
1.21129966696
1.21157568569
1.21177758485
1.21191686877
1.21200578107
1.21205822103
1.21209176255
1.21211902398
1.21213836713
1.21214341027
1.21212538288
1.21207694622
1.21199592789
1.21188975969
1.21176489777
1.21162185417
1.21146071329
1.21128301587
1.2110901113
1.21088092352
1.21065202406
1.21040146907
1.21012982658
1.20983806652
1.20952654661
1.20919677781
1.20885215474
1.20849816946
1.20814138757
1.20778883966
1.20744869838
1.20713130368
1.20684814746
1.2066093984
1.20642098486
1.20628199443
1.20618500973
1.20612331973
1.20609620598
1.20610037294
1.20613026526
1.20618707898
1.206270694
1.20637909323
1.20650857032
1.20664986281
1.20679559546
1.20694034089
1.2070801756
1.20721109388
1.20732895579
1.20743021473
1.20751293877
1.20757674625
1.20762227186
1.20764974523
1.20765874499
1.20764976454
1.20762646122
1.20758830625
1.20753444608
1.20746467601
1.20737858347
1.20727423649
1.20715003287
1.20700602743
1.20684209871
1.20665704552
1.2064492413
1.20622212839
1.2059817468
1.20573773438
1.20550363546
1.20529363103
1.20512605305
1.20502604
1.20502021151
1.20512336217
1.20533553863
1.20564236105
1.20601748413
1.20642863856
1.20685165212
1.20726613342
1.20765781693
1.208004166
1.20827979011
1.2084574637
1.20851713818
1.20845412946
1.20827566252
1.2079986359
1.2076418312
1.20722028743
1.20674596074
1.20621849368
1.20563059809
1.20498813163
1.20430808953
1.20361444242
1.20293263263
1.20228817618
1.20170761431
1.20121709904
1.20082991685
1.20053778019
1.20030298108
1.20009718014
1.19993474852
1.19986493229
1.19994160609
1.20021795087
1.20066768997
1.20122543395
1.20183765015
1.20244757323
1.20299209934
1.20341171563
1.20366232168
1.20373087681
1.20363702581
1.20342250032
1.20311828752
1.20273108603
1.20226816699
1.20174552618
1.20117507913
1.20056125404
1.19990438302
1.19921545979
1.19857342668
1.19799674199
1.19747654334
1.19701576984
1.19662196358
1.19628926322
1.19599080026
1.19572591104
1.19550584067
1.195331969
1.19519640898
1.19509692902
1.19505606467
1.19504068031
1.19503203036
1.19501119722
1.19495988503
1.19488037024
1.19477237549
1.19463655783
1.19447853071
1.19430367051
1.1940956908
1.19386970854
1.19365308365
1.1934519917
1.1932644573
1.1930907559
1.19291501422
1.19270742312
1.19245208051
1.1921651028
1.19194552561
1.19195835125
1.19217001614
1.19293036278
1.19453179318
1.19736516708
1.20201333521
1.20941874101
1.22109695762
1.2397697739
1.14752937541
1.18022690611
1.1877601148
1.18927731791
1.18955697487
1.18960016686
1.18960700162
1.18960836933
1.18960994009
1.18961509105
1.18963326271
1.18969138203
1.18984374343
1.1901650683
1.19073994291
1.19165472438
1.19299702297
1.19478891871
1.19694827806
1.19933585272
1.20175909595
1.20402712669
1.2059863351
1.20754991076
1.20871400081
1.20952209318
1.21003633763
1.21035464901
1.21057887926
1.21073955165
1.21085112242
1.21092818084
1.21097695434
1.21100225783
1.21100946253
1.21099948073
1.21096584799
1.2109024258
1.21080806303
1.21068557823
1.21053315241
1.2103525047
1.21014953147
1.20992559339
1.20968042196
1.20941231607
1.20911930817
1.20880065025
1.20845611523
1.20808695714
1.20769601097
1.20728578056
1.20685908665
1.20641947775
1.20597148804
1.20552084272
1.2050744152
1.20463998788
1.20422595933
1.20384155666
1.20349677704
1.20320222026
1.20296801662
1.20280154885
1.20270410975
1.20265335583
1.20262460628
1.2026215032
1.20266136274
1.20274120391
1.20285637561
1.20300337248
1.20317801023
1.20337340832
1.20358675064
1.20381639203
1.2040621952
1.20431727278
1.20457276817
1.20482110054
1.2050570066
1.20527659171
1.20547302555
1.2056404209
1.2057778316
1.20588624907
1.20596231192
1.20600325463
1.20600983278
1.20598501436
1.20592895523
1.20583904838
1.20571579458
1.20556212621
1.20537851784
1.20516369237
1.20492080156
1.20465535666
1.20437132454
1.20406787741
1.20374634192
1.20342030351
1.20311823757
1.20287647453
1.20272242027
1.20267259099
1.2027244962
1.20287836077
1.20312951582
1.20346623911
1.20388986575
1.20439180487
1.20496322618
1.20556720165
1.20614476372
1.20663169627
1.20697404271
1.20714661928
1.20715563721
1.20701517389
1.20675432718
1.20641230568
1.20600745855
1.20555820817
1.20507043803
1.20455412104
1.20402733022
1.2035072477
1.20300925366
1.20254374607
1.20211675179
1.20171061261
1.20129207849
1.20085353516
1.20039335973
1.19992167486
1.19946104229
1.19904261066
1.19869848153
1.19846261065
1.19840117451
1.19853057424
1.19879978038
1.19918886717
1.19964597037
1.20011271688
1.20054279562
1.20089361993
1.20111793148
1.20120397069
1.2011504207
1.20097242381
1.2006846498
1.20031231914
1.19988220223
1.19939913446
1.1988354724
1.19822558022
1.19763727014
1.19707347805
1.19655442794
1.19609252907
1.19568433474
1.19532624736
1.19502407839
1.19477461927
1.19456532243
1.19440280047
1.19425022788
1.19411157045
1.19399463388
1.1938881587
1.19380129891
1.19373030947
1.19367687389
1.19361235094
1.19352018484
1.19342070575
1.19330288813
1.1931529384
1.19298049367
1.19283661069
1.19272671707
1.19261429748
1.19248827164
1.19235380032
1.1922147753
1.19205518318
1.19185782779
1.1916057587
1.19129066147
1.19107947566
1.19099283329
1.19143543672
1.19277546772
1.19540964302
1.1999796067
1.20755565517
1.21986174488
1.23967371815
1.14669342322
1.1798353237
1.18764365171
1.18925191882
1.18955064894
1.18960169514
1.18960959416
1.1896110089
1.1896126258
1.18961736082
1.18963354577
1.1896860486
1.18982886304
1.19014093875
1.19071010909
1.19162282366
1.19296852825
1.1947631811
1.19692013992
1.19929455378
1.20169087211
1.20391509095
1.20581892581
1.20732017884
1.2084194954
1.20917605545
1.20965050134
1.2099079873
1.21005296766
1.21013547819
1.21017303143
1.21017650274
1.21015210276
1.21010570662
1.21004033112
1.20995398686
1.20984234287
1.2097037951
1.20953510123
1.20933403053
1.20910457946
1.20884933584
1.20856889972
1.20826365316
1.2079333476
1.20757821126
1.20719899588
1.20679827243
1.20637992711
1.20594774466
1.20550537186
1.20505707251
1.20460739963
1.20416106887
1.20372283507
1.20329751345
1.20288973485
1.20250337408
1.20214087087
1.20180344828
1.20149505191
1.20121900639
1.20097818471
1.20077186201
1.20058937152
1.20042591187
1.2002857434
1.20017411898
1.20009484241
1.20005213555
1.20004957358
1.2000853197
1.20015139108
1.20024505014
1.2003737028
1.20054371009
1.2007575484
1.20100496339
1.20127343516
1.20155745592
1.2018527504
1.20215774923
1.20247344861
1.20279351631
1.20310134815
1.20338851768
1.20365127477
1.20388765901
1.20409136718
1.20425900782
1.20438401636
1.2044541418
1.20446140299
1.20441151611
1.20431781639
1.20417541257
1.20398384484
1.20375258805
1.20348852865
1.20318701008
1.20285455105
1.20250905851
1.20217821675
1.2018964467
1.20168128942
1.20152525312
1.20141433679
1.20135042601
1.20135616254
1.20144934502
1.20164428082
1.20194962531
1.20236142705
1.20287625576
1.20348248903
1.20412332097
1.20473224295
1.20525465898
1.20564129382
1.20585888104
1.20590275475
1.20581938748
1.20567652394
1.20549449663
1.20526026859
1.20495589228
1.20458178177
1.20415655752
1.20371531691
1.2032727964
1.20279130467
1.20225737549
1.20168836101
1.2010922544
1.20048646365
1.19988673214
1.19931545228
1.1987954213
1.19834138805
1.19796158208
1.19768769355
1.19750933658
1.19742096345
1.19746047944
1.19762021319
1.19784967382
1.19811333887
1.19836126751
1.19857211227
1.19871833125
1.19876841554
1.19871782074
1.19857373606
1.19833746918
1.19800349144
1.19760661337
1.19716530669
1.19673689452
1.19627594697
1.19579469544
1.19534816718
1.1949465515
1.19458494439
1.19426691917
1.19400940458
1.19379562001
1.1935908154
1.19343265703
1.19329332564
1.19314893566
1.19299696741
1.19284035982
1.19271146947
1.1926541474
1.19264952999
1.19262105156
1.19255133242
1.19246372916
1.1923722816
1.19228456783
1.19219260824
1.19209543549
1.19200103209
1.19190746109
1.19180868339
1.1917039002
1.19159404598
1.19147274573
1.1913262161
1.19113877134
1.19091041347
1.19067148834
1.19051669366
1.19072776946
1.19177662484
1.19411692946
1.19849173841
1.20610881374
1.21889738882
1.23959219023
1.14591285575
1.17944926628
1.18752150678
1.18922262166
1.18954467589
1.18960231929
1.18961151418
1.18961323445
1.18961473116
1.18961869772
1.18963173141
1.18967462381
1.18979648899
1.19007725031
1.19060855784
1.19147976678
1.19278395167
1.19453614083
1.19665385395
1.19898905616
1.20134639488
1.20353931206
1.20542530545
1.20691844021
1.20801145343
1.20876696478
1.20925198917
1.20951325373
1.20961958229
1.2096439229
1.20961743429
1.20955650675
1.20946835615
1.20935862393
1.20922856642
1.20907555649
1.20889773473
1.2086916279
1.20845454798
1.20818926177
1.20789808417
1.20758290242
1.20724487864
1.2068850856
1.20650551123
1.20610993166
1.20570342912
1.20529163267
1.2048797219
1.20447194228
1.20407241376
1.20368551672
1.20331528501
1.20296461566
1.20263472586
1.20232531302
1.20203456407
1.20175910972
1.20149362978
1.20123408198
1.20097539372
1.20071311771
1.20044695639
1.20017932035
1.19991295185
1.19965093957
1.19939736159
1.19915717032
1.19893682306
1.1987426305
1.19857776865
1.19844186399
1.1983370282
1.19827015647
1.19824715379
1.19826758543
1.19832635061
1.1984186199
1.19854075134
1.19868941586
1.19887016287
1.19909430522
1.19935890105
1.19965404899
1.19997351729
1.20029927948
1.20062600864
1.20095923648
1.20128960885
1.20160815901
1.20190228111
1.20215716674
1.20235531762
1.20249215544
1.20256159932
1.20256014008
1.20250639668
1.20241486889
1.20227502465
1.20207990768
1.2018175833
1.20150646071
1.20116962447
1.20083253141
1.20054586793
1.20034168481
1.2001889722
1.20006695972
1.19998823139
1.19994543135
1.19995003551