/*--------------------------------*- C++ -*----------------------------------*\
  =========                 |
  \\      /  F ield         | OpenFOAM: The Open Source CFD Toolbox
   \\    /   O peration     | Website:  https://openfoam.org
    \\  /    A nd           | Version:  12
     \\/     M anipulation  |
\*---------------------------------------------------------------------------*/
FoamFile
{
    format      ascii;
    class       volScalarField;
    location    "10";
    object      T;
}
// * * * * * * * * * * * * * * * * * * * * * * * * * * * * * * * * * * * * * //

dimensions      [0 0 0 1 0 0 0];

internalField   nonuniform List<scalar> 
40000
(
300.99431534
294.637757712
293.469652323
293.221664915
293.163805974
293.148478573
293.143832377
293.142214758
293.141586297
293.141249333
293.14102494
293.140822076
293.140540813
293.140100594
293.139536149
293.138704969
293.13711535
293.133981827
293.128792155
293.120503407
293.106886137
293.083673023
293.044021573
292.98435401
292.910018637
292.819736126
292.709415148
292.576034473
292.420884844
292.245644557
292.055340102
291.852797034
291.644288888
291.443278645
291.248022871
291.060714273
290.883659887
290.718138128
290.565219646
290.425527891
290.298950287
290.185051449
290.082519758
289.9902773
289.908004003
289.834859653
289.769014427
289.708425923
289.648008802
289.585077151
289.513905922
289.439277156
289.36201158
289.278866639
289.191492524
289.099987937
289.00446484
288.905482481
288.802590128
288.695873231
288.586038419
288.473134407
288.357300226
288.238702929
288.117389337
287.995301959
287.874266821
287.755419281
287.638970541
287.524131983
287.410015467
287.297116239
287.186495941
287.079518444
286.976607875
286.877952444
286.783609463
286.692962268
286.606087489
286.523269771
286.445645388
286.37338042
286.305940019
286.243488441
286.18577229
286.131476971
286.079742888
286.030593532
285.983498865
285.937652031
285.893387016
285.851678727
285.812808091
285.776544352
285.742858459
285.711769313
285.682748855
285.65484877
285.62764427
285.601052796
285.574714128
285.548399847
285.521884197
285.49544793
285.470122655
285.446274212
285.424857682
285.405955641
285.38814821
285.370365065
285.354112843
285.342757669
285.33745993
285.336109135
285.336182997
285.336375724
285.33545858
285.332884237
285.329124162
285.324146417
285.317671441
285.309318625
285.298639852
285.285885286
285.269803943
285.248386876
285.219698892
285.187386687
285.15540373
285.127832261
285.105654761
285.084922736
285.067047349
285.051672727
285.038676202
285.027025004
285.015200551
285.002844222
284.98933348
284.974368593
284.957750478
284.939722814
284.920937807
284.901544161
284.882631675
284.864545791
284.847452707
284.830898396
284.812644247
284.789979952
284.766415068
284.744018645
284.72317134
284.704008498
284.686299054
284.669537708
284.65323939
284.636878632
284.620061308
284.602558601
284.584215433
284.564967276
284.544908459
284.524150579
284.502771894
284.480869483
284.45856662
284.436000615
284.413340484
284.390755812
284.368363968
284.346238425
284.324420711
284.302918527
284.281710298
284.260737885
284.239910258
284.219110745
284.19820307
284.177042042
284.155478992
284.133361647
284.110555747
284.086988413
284.062674894
284.037712322
284.012261916
283.98652311
283.960706722
283.935003126
283.905645088
283.860240885
283.791004875
283.68760997
283.535436101
283.313316909
282.989198112
282.50944182
281.761551074
280.301960673
301.46533232
294.662983153
293.443664731
293.200995049
293.154372666
293.144685488
293.142605652
293.142404489
293.142511747
293.142545022
293.142660731
293.142838399
293.142485245
293.140667001
293.135545556
293.124917734
293.105010492
293.070154118
293.018927176
292.945690487
292.841739781
292.701524073
292.522765508
292.305953352
292.056890227
291.779741492
291.479072729
291.161562903
290.841165342
290.537632088
290.260465651
290.01609351
289.804066689
289.625314908
289.478160403
289.356470796
289.255658894
289.174242305
289.109156397
289.057534272
289.017400354
288.984830627
288.95840832
288.938603311
288.922629353
288.905250685
288.882385461
288.853556115
288.815560913
288.764937434
288.699364294
288.62051289
288.529094839
288.42662914
288.315066223
288.195859772
288.071169643
287.943117344
287.813733921
287.685115921
287.559108895
287.437215656
287.32076915
287.21073961
287.107708598
287.011787227
286.922521531
286.839115273
286.760977266
286.687694419
286.618647794
286.553030937
286.490434275
286.431025803
286.375235505
286.323538704
286.275998441
286.232169845
286.191543687
286.153564861
286.117764705
286.083760109
286.05104825
286.019040545
285.987300927
285.955781022
285.924620736
285.893791795
285.863250492
285.832970618
285.80291557
285.773137705
285.744101493
285.717473239
285.695851362
285.68007472
285.667336004
285.65466141
285.641553561
285.62927103
285.618422606
285.609129545
285.601368533
285.595198805
285.590551538
285.587411811
285.586058486
285.586774477
285.589273651
285.592908081
285.595794306
285.596345903
285.593487935
285.58623412
285.573731957
285.555258634
285.530460039
285.500222934
285.46791099
285.4398795
285.420837984
285.405256767
285.387319879
285.369985658
285.355749796
285.345531754
285.339489137
285.337618503
285.339473038
285.344054093
285.349870065
285.355334223
285.359492451
285.36161642
285.361206334
285.357929502
285.351709295
285.342743644
285.331423814
285.318537432
285.304223546
285.289765066
285.275162334
285.261475539
285.249516995
285.240015728
285.23358359
285.230553793
285.230911019
285.234498122
285.241172282
285.250549545
285.26219794
285.275696853
285.290468824
285.305874919
285.321311259
285.336159618
285.349796199
285.361699997
285.371538199
285.379175079
285.384711675
285.388551442
285.39125933
285.393456518
285.39580919
285.398991378
285.403645679
285.410324748
285.419448163
285.431277907
285.445927607
285.463356834
285.483329083
285.505416691
285.529150082
285.554097114
285.579833264
285.605935292
285.631978116
285.657506751
285.682051885
285.705216581
285.726788202
285.746731115
285.764948068
285.780941775
285.793541739
285.791589746
285.762319438
285.705689197
285.609315169
285.455389731
285.218814924
284.864145198
284.340493038
283.572238648
282.439369508
280.699495782
301.957853767
294.787939707
293.445712335
293.199053932
293.153848752
293.145684695
293.144293274
293.144191387
293.144263313
293.144269532
293.143989062
293.142867692
293.140327785
293.134765195
293.120826167
293.089638558
293.030528574
292.933808992
292.790412064
292.591656457
292.334254311
292.018871487
291.651859123
291.247784302
290.823339207
290.391291741
289.966302875
289.568176953
289.221804638
288.938465083
288.713565233
288.537721687
288.404748645
288.306424438
288.233783419
288.178785777
288.135201393
288.099968659
288.073395005
288.056637884
288.04963162
288.050091737
288.054328784
288.055904531
288.05129249
288.040378837
288.023655105
287.998682986
287.961750562
287.909194339
287.839654446
287.754366749
287.656154905
287.548807311
287.436710598
287.324550485
287.216377313
287.114451782
287.019645293
286.932665786
286.854125462
286.78414607
286.722157666
286.667358743
286.61888553
286.57606951
286.538100943
286.503835798
286.472311023
286.443246031
286.416663938
286.392346339
286.369914274
286.349171213
286.330138801
286.31257673
286.295535807
286.278215834
286.260014676
286.240549703
286.219648359
286.197210089
286.173216177
286.147746139
286.121024011
286.093488007
286.065817978
286.038843209
286.013355385
285.989938313
285.968937282
285.950870946
285.93599514
285.923458772
285.913548692
285.907083113
285.904145917
285.904376153
285.907450674
285.913359297
285.922080852
285.933395627
285.946812232
285.961589691
285.97677671
285.991371967
286.004484546
286.015234414
286.022713815
286.0253623
286.021085448
286.009367257
285.990406784
285.964968365
285.934311046
285.900038241
285.864322268
285.830308505
285.802034468
285.778417624
285.758455919
285.744397364
285.737286776
285.738069027
285.747840682
285.76716872
285.795484601
285.830929089
285.870687593
285.911668971
285.951042316
285.986437151
286.016346457
286.039979451
286.057064709
286.067604555
286.07150331
286.068727321
286.059907852
286.046304847
286.02982886
286.013051134
285.997734638
285.985904185
285.979242681
285.978881222
285.985748608
286.000636102
286.023996759
286.055771331
286.095266302
286.141249382
286.192317275
286.247277196
286.305037527
286.364455
286.424168658
286.482509558
286.537682425
286.588119462
286.632666122
286.670684139
286.702083973
286.727404074
286.747827496
286.765019865
286.780906418
286.797368126
286.815988884
286.837939294
286.864026538
286.894751135
286.930374051
286.970949561
287.016282796
287.065880486
287.11899269
287.174657539
287.231735111
287.289004077
287.34533203
287.399703915
287.451128683
287.498592704
287.541054564
287.577381372
287.606161247
287.625414315
287.626993442
287.603886988
287.556225885
287.473412442
287.338953739
287.128844538
286.808908227
286.331059542
285.627918109
284.604352988
283.121370739
280.928226649
302.385549376
294.915593129
293.467812713
293.199328088
293.154076853
293.146242793
293.144740058
293.144414842
293.144357853
293.143865803
293.142954833
293.141070389
293.135841311
293.121446812
293.087087063
293.018383619
292.901877254
292.723676124
292.467455232
292.128194805
291.714960179
291.248567774
290.750821741
290.245854557
289.751716321
289.286008786
288.872971715
288.533314714
288.276210469
288.08613848
287.944777726
287.844145547
287.774763008
287.726861949
287.692174272
287.665247911
287.643451729
287.62506949
287.609448968
287.595743733
287.581684068
287.565130532
287.547593288
287.531845578
287.516242491
287.497524703
287.472811414
287.440181387
287.398516663
287.347686474
287.288513248
287.22281577
287.153492264
287.084000732
287.01772102
286.957545573
286.905408821
286.86203607
286.827102975
286.799776862
286.779091808
286.764069694
286.753741758
286.747046489
286.742581983
286.738759335
286.734824461
286.731145818
286.728065559
286.725653648
286.72361794
286.72133497
286.718212113
286.713823458
286.7079355
286.699874976
286.689305333
286.676206924
286.6606804
286.642862075
286.623028902
286.601555206
286.578772304
286.554856461
286.529904682
286.504284531
286.47895608
286.455302551
286.434485487
286.417243787
286.404133168
286.393548056
286.38459579
286.378352303
286.375498375
286.376522599
286.381758924
286.391354022
286.405245103
286.42305354
286.444189423
286.467642695
286.492117112
286.516341038
286.538682555
286.557251609
286.570530762
286.57751492
286.577778338
286.570474073
286.555654095
286.534078919
286.506671667
286.474688785
286.440021925
286.405314916
286.374084117
286.348685489
286.326172884
286.309293248
286.300332335
286.30119685
286.313771474
286.339306207
286.378162618
286.42973748
286.492251097
286.562884979
286.638280738
286.714912501
286.788993397
286.856689371
286.914565786
286.960458124
286.99341332
287.013247195
287.020376526
287.015996381
287.002309599
286.981045407
286.957311259
286.934506956
286.915166313
286.901607423
286.896095113
286.900732064
286.917467196
286.9476941
286.991826136
287.049117426
287.117938586
287.196209605
287.281853034
287.373157028
287.468702041
287.567121581
287.666679073
287.764729952
287.857730361
287.942242981
288.015621112
288.076122388
288.123118208
288.157446241
288.181281348
288.197684368
288.210215207
288.2224858
288.237673554
288.25820631
288.2857859
288.32140284
288.365366928
288.417379498
288.47664203
288.541969806
288.611911612
288.684868085
288.759148838
288.833043017
288.904896201
288.973110109
289.036112636
289.092298285
289.140005865
289.177522641
289.203001628
289.21390293
289.199907139
289.166745192
289.106386426
289.005694096
288.844642951
288.593675277
288.21021862
287.634556053
286.784036627
285.543284506
283.743089208
281.063747718
302.760905763
295.039905771
293.491266023
293.202391839
293.152467615
293.144717284
293.143226829
293.142856833
293.14271271
293.142392064
293.141317498
293.137588301
293.125806016
293.095349021
293.030785526
292.915282061
292.733631952
292.468644076
292.109657753
291.659990699
291.144965224
290.601182447
290.059310988
289.539268026
289.062913549
288.649300567
288.310833617
288.054806798
287.869714854
287.735907979
287.641481527
287.577619679
287.533027775
287.498807024
287.468372334
287.440872683
287.417348014
287.39645786
287.376154
287.355600134
287.336368554
287.319851928
287.304519748
287.28903568
287.27249602
287.254144413
287.233337488
287.209724211
287.183329403
287.15470313
287.125029271
287.096221514
287.070827268
287.051407965
287.039415115
287.034514667
287.035267741
287.040902488
287.051366653
287.066215606
287.084435829
287.104761544
287.125850839
287.146515316
287.165902303
287.183679025
287.199870955
287.214506901
287.22732477
287.237842817
287.245629235
287.250433521
287.252169048
287.250797832
287.246393893
287.238849576
287.228786153
287.216643085
287.202768991
287.18746955
287.171101667
287.153988188
287.136403609
287.118577936
287.100688375
287.082882867
287.065433148
287.048914192
287.034094538
287.020823044
287.007929037
286.996929508
286.989455181
286.986512067
286.988738149
286.996302541
287.009042565
287.026538202
287.048141552
287.072970346
287.099822003
287.127128732
287.153116864
287.176074899
287.194496163
287.207123627
287.213010859
287.211741935
287.203722769
287.189613004
287.171167279
287.149979529
287.127205854
287.103582689
287.079831267
287.05720894
287.03648392
287.016839932
287.003249745
286.998860399
287.00610214
287.027355867
287.064903492
287.120115247
287.192493961
287.279653671
287.37821307
287.48437768
287.594170024
287.702764387
287.804343465
287.893127154
287.96416992
288.013497132
288.038100996
288.037314286
288.014630196
287.976372631
287.927604399
287.878924136
287.838047721
287.805992998
287.783369447
287.771203402
287.770964251
287.784364297
287.813114211
287.858568256
287.92096444
287.999470113
288.092646157
288.198572943
288.315019095
288.439853574
288.571306995
288.707744938
288.847236528
288.986664167
289.121043064
289.244373833
289.351245245
289.43715712
289.499269672
289.537261228
289.553627809
289.552657355
289.540059649
289.522419409
289.506134364
289.496956711
289.499724788
289.517580827
289.551487382
289.600568884
289.662886388
289.736152644
289.81781703
289.905028114
289.994694456
290.083723154
290.169368776
290.249486284
290.322488541
290.386879588
290.440957954
290.482604451
290.50923365
290.51240923
290.499491809
290.466420693
290.404177371
290.298335244
290.126251984
289.8532721
289.428598738
288.781346802
287.813958032
286.38937009
284.302719293
281.151698088
303.091153242
295.155711021
293.516421845
293.205993857
293.151987859
293.143419473
293.142151463
293.14207309
293.141985351
293.141430467
293.139159139
293.131174219
293.108677111
293.058298648
292.962803343
292.804255946
292.563982008
292.227946594
291.79190657
291.273834911
290.709885916
290.142895847
289.603124762
289.112330516
288.691125557
288.348182624
288.082729324
287.884041469
287.737938628
287.631663101
287.556945752
287.50605749
287.471179326
287.444376791
287.418674793
287.393016013
287.370693026
287.352977601
287.337954552
287.323626288
287.310028088
287.297775873
287.287150432
287.278368652
287.271751602
287.26759023
287.265919895
287.266637423
287.269838188
287.275878421
287.284968381
287.29738075
287.314105374
287.336245059
287.363757877
287.396122875
287.431707257
287.468701028
287.506334751
287.544382067
287.582325081
287.6189189
287.652902186
287.683569931
287.710535986
287.733451804
287.752334089
287.767729071
287.780338982
287.790471899
287.798146077
287.803247023
287.805757341
287.805804888
287.802966552
287.798126189
287.792036753
287.785076581
287.777444976
287.769362046
287.760965524
287.752217773
287.743012362
287.733334128
287.723299013
287.713152093
287.703290077
287.694210738
287.685091359
287.676114601
287.668908197
287.664721689
287.664425782
287.668446027
287.676935194
287.689934521
287.707313015
287.728609129
287.752855966
287.778678948
287.804299704
287.827761972
287.847199602
287.861126375
287.868621328
287.869139394
287.862204769
287.847652032
287.826152205
287.799948394
287.771880025
287.744462416
287.719669183
287.699101545
287.684130451
287.674568234
287.669650319
287.67336776
287.688138522
287.714880224
287.753917182
287.806623037
287.875889327
287.964268822
288.072402814
288.198829185
288.340346704
288.492037809
288.648254935
288.802185865
288.945441637
289.068313945
289.160131157
289.210813713
289.212835238
289.164007205
289.066649413
288.937419131
288.808321641
288.700612643
288.614935927
288.550433866
288.509771385
288.493220762
288.498963948
288.524619984
288.569262966
288.63260234
288.713417375
288.809866635
288.920992399
289.046915865
289.186960272
289.339938796
289.504098826
289.677092698
289.855965147
290.036755072
290.21350812
290.378683533
290.524313762
290.63540979
290.708168914
290.746973237
290.759053657
290.74648629
290.716873835
290.679833765
290.640586641
290.604847017
290.57878059
290.567218227
290.573059279
290.597035255
290.637922537
290.693318732
290.760216896
290.835686263
290.917695002
291.003869244
291.091438004
291.177685724
291.259842146
291.334738185
291.399480177
291.448723815
291.477011597
291.490786106
291.492094292
291.474992314
291.428943044
291.336720564
291.174268656
290.901989922
290.460630586
289.769177573
288.71584021
287.139832977
284.797271059
281.210937645
303.384688566
295.264779455
293.541869431
293.21082865
293.151567318
293.142840348
293.141564813
293.141480393
293.14132232
293.140394812
293.136754882
293.124689082
293.093093677
293.027091635
292.907894319
292.715382974
292.429539807
292.040667276
291.555329087
291.000782501
290.418968676
289.853728179
289.337683571
288.896035327
288.54091165
288.268114506
288.065051657
287.910175507
287.787400719
287.69084816
287.616450093
287.559409838
287.516604852
287.486279932
287.467527984
287.458853162
287.456130765
287.454253213
287.450236303
287.445052252
287.441994803
287.443528449
287.451415495
287.46545828
287.48447338
287.507283563
287.532993253
287.561603874
287.593318293
287.628425924
287.666657565
287.70819476
287.753774693
287.803823537
287.858161703
287.916237233
287.976543044
288.036568083
288.093877476
288.146452532
288.193004508
288.233242508
288.267723187
288.297540184
288.323203621
288.344184707
288.359938723
288.370844741
288.377678392
288.38106291
288.381390044
288.378841587
288.37317198
288.363831945
288.35241641
288.340740371
288.329739413
288.319992133
288.311881999
288.305593424
288.3011693
288.298518635
288.297454753
288.29774942
288.299153349
288.301384251
288.304075076
288.305979259
288.307617184
288.310196603
288.314882403
288.322857782
288.334997147
288.35164001
288.372814224
288.398517806
288.428318008
288.461246773
288.495859361
288.530206842
288.561825249
288.587901361
288.605277108
288.610917189
288.602681213
288.579584671
288.541857909
288.491573866
288.432916581
288.372044758
288.315538545
288.267176945
288.229308691
288.202378389
288.185420529
288.178458237
288.184074974
288.204776064
288.242324181
288.297129136
288.368015094
288.453696198
288.554884931
288.673673881
288.811016404
288.965925811
289.135617135
289.315485461
289.500671572
289.685368179
289.861847502
290.020393516
290.14934871
290.234842617
290.259886485
290.218874472
290.126440304
290.003160201
289.85791778
289.701030859
289.542066996
289.390081089
289.257110194
289.154572832
289.091534522
289.071938826
289.093925488
289.151361589
289.235662643
289.33955212
289.460035242
289.596189327
289.744099553
289.900601143
290.064533502
290.2343738
290.407454697
290.580682956
290.751022308
290.907827196
291.037723449
291.142834186
291.227845079
291.295669292
291.351327167
291.396405122
291.424061704
291.432635575
291.429893903
291.419350272
291.40251177
291.383793588
291.370855225
291.367651932
291.376637644
291.398317191
291.432013951
291.476351051
291.529819408
291.591332691
291.659779259
291.733784044
291.81242612
291.887724562
291.950982782
292.00107602
292.044484069
292.084632961
292.12036382
292.147374939
292.151200994
292.0984846
291.973139776
291.728939327
291.298056847
290.591486504
289.484563947
287.790684913
285.223884383
281.251347509
303.649044795
295.369565927
293.568750814
293.216265944
293.15172575
293.14221069
293.141088208
293.140795521
293.140466794
293.139255844
293.134881487
293.120849573
293.084476668
293.00889399
292.874142928
292.659394714
292.34403698
291.921394141
291.407061583
290.833383418
290.245416039
289.687363868
289.194245556
288.789266836
288.476448773
288.247541012
288.088569661
287.976202324
287.890765639
287.825178417
287.777222162
287.744147778
287.723038413
287.710589435
287.702627197
287.696155964
287.691564354
287.690366822
287.694644936
287.706141148
287.725372915
287.750578734
287.780228479
287.814203265
287.852486109
287.894714242
287.940570312
287.990313708
288.044764165
288.104389695
288.16906145
288.238555124
288.312792401
288.391420223
288.473635662
288.558133451
288.643348927
288.72760261
288.808937941
288.884875419
288.952654983
289.009829475
289.054965859
289.088271507
289.111516098
289.1263035
289.132803342
289.131804532
289.124638907
289.111020704
289.090980527
289.065004364
289.033983306
289.000139004
288.96523942
288.930584587
288.897113361
288.865783418
288.837583794
288.813360986
288.793575043
288.778315411
288.767428888
288.760859574
288.758707633
288.760854886
288.766426986
288.775550771
288.78843104
288.805117759
288.825710942
288.850674498
288.880394112
288.914859607
288.954103466
288.998417272
289.048195399
289.102618449
289.160243441
289.218762363
289.274926142
289.325327904
289.365559823
289.389576214
289.390976029
289.366206183
289.31526891
289.241641608
289.151675247
289.053131656
288.951815748
288.852612227
288.758927738
288.676137066
288.610286167
288.567852928
288.553603548
288.568648186
288.611270229
288.677455798
288.762746337
288.863577133
288.977117581
289.103483282
289.244456327
289.398672524
289.562087718
289.728962641
289.893177547
290.048567329
290.188694019
290.307192687
290.400796967
290.471463551
290.52828555
290.578108276
290.617443809
290.634354597
290.61578422
290.548871591
290.440039617
290.305184602
290.157302843
290.010124518
289.878852723
289.777774265
289.717440558
289.700939233
289.723526661
289.775172164
289.848441417
289.941752435
290.053389762
290.179533261
290.317340789
290.465774112
290.624785308
290.791743223
290.947510834
291.087566515
291.214019767
291.326119485
291.421995488
291.503043845
291.575789971
291.640383263
291.694069124
291.736498711
291.769587542
291.793874141
291.803851429
291.807607396
291.809718931
291.8148055
291.82733551
291.846754902
291.873134209
291.906316671
291.94493493
291.987678862
292.038535197
292.093813828
292.146823232
292.196048907
292.241970765
292.284518164
292.327577872
292.378457518
292.441065107
292.511461333
292.565346935
292.562198806
292.510255747
292.323817458
291.931921146
291.241117129
290.114902886
288.33851238
285.580943038
281.279666444
303.889209566
295.470127519
293.596147761
293.221596551
293.152661896
293.142017935
293.140333569
293.139996427
293.13960928
293.138339937
293.133862178
293.119541784
293.082007219
293.002879717
292.861421218
292.636603823
292.307343679
291.868952351
291.342404224
290.762414308
290.176116285
289.629509656
289.158985795
288.784572563
288.506448947
288.313694728
288.191165904
288.115373961
288.0620071
288.023779027
287.997239276
287.978911776
287.967312524
287.961294966
287.9595812
287.961954148
287.969951264
287.985033387
288.007476559
288.036613662
288.072881628
288.11587662
288.164200592
288.217534785
288.275948741
288.339854202
288.409727771
288.485756629
288.568004706
288.656182982
288.749624458
288.847740246
288.949864465
289.055155321
289.162532471
289.270626678
289.377788914
289.482146849
289.581674692
289.674142114
289.757128547
289.828064331
289.884490562
289.924610724
289.948099593
289.960336005
289.967267832
289.968016152
289.958405928
289.939157825
289.911396689
289.875972056
289.833897496
289.786835709
289.735469472
289.680199252
289.621062549
289.559720071
289.498303153
289.438633062
289.381971573
289.329250082
289.282103379
289.241938421
289.208976322
289.182974407
289.164734907
289.154917952
289.153340663
289.159291131
289.172732909
289.194293322
289.223855878
289.260721904
289.304783085
289.356352628
289.414681531
289.478453612
289.546722371
289.619693283
289.697054168
289.775540725
289.848294461
289.906550401
289.94368406
289.955697194
289.943183931
289.906096411
289.845578245
289.764481152
289.662518443
289.541799479
289.404492044
289.25950356
289.120991516
289.004317302
288.922343612
288.881038041
288.87887933
288.91249611
288.974945296
289.056869606
289.153902686
289.261654626
289.378736546
289.502774154
289.629437737
289.754597305
289.874542843
289.986753893
290.089758092
290.187799737
290.288903058
290.394915541
290.506240536
290.620438412
290.732047055
290.833504919
290.916999576
290.974255657
290.989172599
290.957755746
290.892417055
290.798034047
290.687230008
290.574175293
290.470079761
290.3852217
290.330990224
290.310193155
290.323134454
290.366162122
290.435754435
290.525845118
290.629988
290.747041172
290.883743093
291.031802265
291.174765301
291.311902394
291.438270851
291.550817544
291.650350939
291.737722297
291.811490551
291.872418839
291.923557351
291.96327938
292.000579365
292.034485554
292.063086256
292.089133013
292.1103846
292.127755424
292.140832118
292.156623809
292.179184279
292.203538852
292.232388494
292.269114658
292.311361901
292.346621193
292.373556984
292.401117082
292.432018983
292.464998924
292.499103478
292.538263167
292.58670345
292.64859637
292.726002002
292.777903987
292.799202871
292.690431706
292.361607998
291.717370572
290.606410611
288.783194798
285.869933954
281.301279627
304.110570055
295.568019741
293.624766549
293.227687244
293.154049195
293.141469671
293.139523045
293.139174282
293.138775721
293.137608817
293.133620541
293.120683881
293.085500536
293.008648061
292.868586778
292.644265675
292.314153344
291.875067605
291.349081265
290.77225512
290.192418823
289.656290946
289.198959739
288.839352064
288.576590171
288.396032362
288.282917925
288.221566637
288.187033379
288.167383446
288.158440713
288.157613605
288.163423091
288.174470867
288.190039642
288.21060476
288.237200186
288.270211505
288.31041599
288.358351556
288.413072625
288.473969368
288.540906347
288.6138007
288.692720847
288.777622073
288.868335013
288.96425497
289.064461079
289.168054664
289.274167846
289.381782173
289.489806728
289.597108233
289.702540617
289.804939994
289.903183782
289.996328995
290.083777006
290.165222151
290.23970114
290.30639972
290.364612516
290.414504603
290.458647985
290.498199322
290.532123626
290.559145242
290.578339297
290.588680367
290.589300838
290.580645336
290.5646482
290.541974541
290.510835111
290.469696307
290.417967684
290.358139655
290.293247707
290.224628993
290.153320952
290.079706267
290.003548221
289.92637718
289.852195034
289.783026352
289.71976663
289.66287984
289.613874557
289.5735583
289.543501974
289.52664406
289.52489842
289.536890355
289.559417009
289.593659607
289.639737082
289.695380501
289.758942869
289.831556308
289.911663281
289.994957723
290.074764974
290.14276962
290.194718929
290.23240528
290.259200127
290.274641819
290.273255875
290.250742839
290.203657177
290.129933519
290.030565618
289.906432908
289.760397326
289.606187055
289.459807508
289.334340949
289.241554176
289.189362159
289.178839867
289.198832002
289.233098871
289.276771484
289.332988009
289.406073703
289.495954659
289.59818393
289.70434037
289.810883273
289.926898507
290.055657427
290.193003347
290.337028217
290.483539365
290.628730746
290.767169134
290.893303023
291.00351856
291.095779681
291.16234792
291.205713528
291.227205023
291.217594041
291.178751877
291.122972612
291.058904997
290.998686675
290.947494843
290.912003927
290.899848415
290.912125373
290.947095896
291.004458853
291.085584107
291.182047527
291.289385066
291.393662336
291.505942442
291.62326079
291.732199001
291.83024965
291.918589018
291.996325676
292.059301718
292.11160402
292.161726806
292.200445326
292.234563221
292.269928088
292.307158204
292.345534754
292.377126664
292.391178624
292.392310182
292.399291753
292.416385667
292.437867448
292.460295373
292.481810865
292.504371295
292.528214506
292.551381966
292.574348794
292.598597519
292.624324906
292.651302228
292.681096159
292.717095047
292.763158723
292.819296189
292.878054445
292.916135237
292.864210986
292.606468038
292.033001222
290.967008423
289.129439403
286.095926599
281.319603467
304.317544273
295.664591805
293.654795815
293.234739218
293.155349395
293.141144061
293.138878099
293.138454029
293.138085047
293.13710745
293.133895603
293.123326711
293.093303129
293.024156507
292.893394247
292.679230092
292.35921495
291.930370749
291.413741725
290.846170783
290.275457628
289.746558276
289.293223614
288.935324844
288.673894466
288.493465071
288.377751385
288.315458975
288.290114837
288.284313329
288.290625767
288.305146956
288.326159176
288.352320146
288.383333059
288.419827736
288.462252028
288.511440224
288.568041114
288.631402441
288.700979816
288.776330906
288.857186679
288.943299524
289.034202579
289.128999622
289.226479124
289.325295215
289.424206379
289.522192237
289.618259853
289.711351029
289.800488465
289.884966687
289.964484012
290.039105229
290.109260313
290.175756294
290.239873272
290.302584956
290.365115918
290.428541621
290.492935227
290.557714405
290.622215471
290.685689618
290.747146907
290.805383751
290.858829732
290.905948088
290.945961703
290.978955398
291.004411591
291.020651697
291.026238435
291.021276164
291.007004655
290.984599263
290.954947865
290.918862843
290.875002559
290.820630284
290.756470998
290.684936815
290.60754783
290.528676601
290.449614233
290.369023602
290.289167682
290.212210929
290.1411918
290.079674826
290.031868811
289.998864346
289.982117661
289.98246932
289.995429253
290.017503521
290.051237161
290.098317075
290.161637712
290.23677332
290.318162655
290.399659784
290.469000876
290.51841102
290.555376876
290.584918193
290.60398288
290.614348305
290.613233243