/*--------------------------------*- C++ -*----------------------------------*\
  =========                 |
  \\      /  F ield         | OpenFOAM: The Open Source CFD Toolbox
   \\    /   O peration     | Website:  https://openfoam.org
    \\  /    A nd           | Version:  12
     \\/     M anipulation  |
\*---------------------------------------------------------------------------*/
FoamFile
{
    format      ascii;
    class       volVectorField;
    location    "10";
    object      U;
}
// * * * * * * * * * * * * * * * * * * * * * * * * * * * * * * * * * * * * * //

dimensions      [0 1 -1 0 0 0 0];

internalField   nonuniform List<vector> 
40000
(
(-0.0157252772679 0.010597335791 0)
(-0.0208445099392 -0.000882212621194 0)
(-0.0177878022099 -0.00242082503318 0)
(-0.0144461931803 -0.0018706338385 0)
(-0.0122064936547 -0.000989433506586 0)
(-0.0112381861566 -0.000417308367196 0)
(-0.0111922163931 -0.000102713481243 0)
(-0.0118417395261 0.000131256959199 0)
(-0.0127410410162 0.00026172116368 0)
(-0.0138774857184 0.000322200359678 0)
(-0.0151738533332 0.000359988659671 0)
(-0.0165996986597 0.000385207187242 0)
(-0.0181397296643 0.000402428036523 0)
(-0.019782641088 0.000413517893116 0)
(-0.0215240251407 0.000419921431907 0)
(-0.023364004711 0.000422767963574 0)
(-0.0253061827693 0.000420454121944 0)
(-0.0273435869536 0.000408286135966 0)
(-0.0294598069801 0.000386031157515 0)
(-0.0316296058311 0.000353242697299 0)
(-0.0338324552135 0.000323315152097 0)
(-0.0360275042266 0.000307314084846 0)
(-0.0381271277322 0.000281564026821 0)
(-0.040009800426 0.000234827335196 0)
(-0.041577818861 0.000181371130992 0)
(-0.0427440644596 0.000118905793921 0)
(-0.0434015631704 3.60531621213e-05 0)
(-0.0434690171704 -5.48469845978e-05 0)
(-0.0430682647765 -0.000118405494012 0)
(-0.042403292849 -0.000153251760297 0)
(-0.0413405215237 -0.000207903411438 0)
(-0.0399509260779 -0.000296179596038 0)
(-0.0383684928311 -0.000383873951163 0)
(-0.0366918668269 -0.000453199126808 0)
(-0.034931043058 -0.000510270875658 0)
(-0.0331239702805 -0.000553880643151 0)
(-0.0313239766244 -0.000584797834584 0)
(-0.0296033746505 -0.000586842777286 0)
(-0.0279912784192 -0.000555567788618 0)
(-0.0265386166813 -0.000516716337817 0)
(-0.0252416665825 -0.000469217069839 0)
(-0.0241060551453 -0.000397987058051 0)
(-0.023183492809 -0.000279931339606 0)
(-0.0225008359156 -0.000147398290512 0)
(-0.0220140840954 -3.13082115478e-05 0)
(-0.0217480155196 4.93845387879e-05 0)
(-0.021717241911 8.0632416766e-05 0)
(-0.0219348501168 7.34610032319e-05 0)
(-0.0224188903084 5.97363678935e-05 0)
(-0.0230843800363 7.72986891135e-05 0)
(-0.0239193633507 0.000103704282809 0)
(-0.0249309673349 0.000127609376323 0)
(-0.0260104071569 0.000146200123014 0)
(-0.0271268244053 0.000154968875141 0)
(-0.028237932174 0.000153182408918 0)
(-0.0293181361807 0.000146406776553 0)
(-0.0303573322148 0.000146667979021 0)
(-0.0313525458954 0.000151897259166 0)
(-0.0323190496747 0.00015457790595 0)
(-0.0332536837838 0.000150571170919 0)
(-0.0341478250358 0.000139379932036 0)
(-0.034990811113 0.000122444273888 0)
(-0.035777003792 0.000104278958546 0)
(-0.0365090844838 9.0933574553e-05 0)
(-0.0371990542104 8.61756023509e-05 0)
(-0.0378555380275 8.76589267159e-05 0)
(-0.038478777369 8.85007107658e-05 0)
(-0.0390605600631 8.6041469593e-05 0)
(-0.0395766907093 7.99399279731e-05 0)
(-0.0399893293486 7.1166376896e-05 0)
(-0.0403062311975 5.91176780732e-05 0)
(-0.0405546386296 4.56417136985e-05 0)
(-0.0407189368759 3.46668949025e-05 0)
(-0.0408074484403 2.65290372395e-05 0)
(-0.0408361420732 2.04615815568e-05 0)
(-0.0408170777329 1.46124573166e-05 0)
(-0.0407669639726 9.23820428994e-06 0)
(-0.0406787010768 5.22085932481e-06 0)
(-0.0405478268483 1.32827471559e-06 0)
(-0.0403640591194 -3.4320601034e-06 0)
(-0.040120028917 -7.09062224072e-06 0)
(-0.0398052376333 -8.6600150323e-06 0)
(-0.0394168995078 -9.84326972749e-06 0)
(-0.0389483897582 -1.18264288952e-05 0)
(-0.0383934381579 -1.33486374747e-05 0)
(-0.0377599797327 -1.31455314249e-05 0)
(-0.0370596831576 -1.02784862088e-05 0)
(-0.0363120436454 -6.04476292797e-06 0)
(-0.0355409084813 -6.46111660952e-06 0)
(-0.0347650537342 -1.66864264847e-05 0)
(-0.0340130908764 -4.02629823275e-05 0)
(-0.0333167754104 -8.50675682202e-05 0)
(-0.0327024304149 -0.000170829345272 0)
(-0.0321855127787 -0.000310113580328 0)
(-0.0317870034481 -0.000477881032722 0)
(-0.0315442077478 -0.000645773856134 0)
(-0.0315102060124 -0.000746328570308 0)
(-0.0318196507326 -0.000710941188531 0)
(-0.0324775657274 -0.000550170625956 0)
(-0.0335335015539 -0.000314292746673 0)
(-0.0348423738543 -5.8432900873e-05 0)
(-0.0363244164213 0.000178173517103 0)
(-0.0379064579941 0.000357054828013 0)
(-0.0394532370344 0.000453160099575 0)
(-0.0408649291762 0.000472782729302 0)
(-0.0420268325738 0.000435506913402 0)
(-0.042906903922 0.000374773320107 0)
(-0.0435119849408 0.000284309693251 0)
(-0.0437603559953 0.000167506576644 0)
(-0.0436452349556 4.57681733363e-05 0)
(-0.0432862648631 -4.80456170187e-05 0)
(-0.0426334179122 -0.000133017572876 0)
(-0.0416719679647 -0.000214977777033 0)
(-0.040432884099 -0.000288675024757 0)
(-0.0389986089179 -0.000357297480956 0)
(-0.0374164220477 -0.000428330518059 0)
(-0.0357342465808 -0.00051833172758 0)
(-0.0340534986532 -0.000650409395784 0)
(-0.0324448614475 -0.000866780624211 0)
(-0.0309545620197 -0.00120139671562 0)
(-0.0297000290918 -0.0015829297901 0)
(-0.0289404685102 -0.00187364532479 0)
(-0.0290257218361 -0.00184837955903 0)
(-0.0305768043799 -0.00136112116281 0)
(-0.0336527876038 -0.000456225036842 0)
(-0.0378786983077 0.000487664249772 0)
(-0.0428169777547 0.00123151650503 0)
(-0.0479976437131 0.00174391337247 0)
(-0.0531336387939 0.00199285534514 0)
(-0.0579965224111 0.0020284588201 0)
(-0.062411709129 0.00193296845552 0)
(-0.0662120529544 0.0017091307314 0)
(-0.0693547364289 0.00143141157687 0)
(-0.0718421354744 0.00112631536987 0)
(-0.0736192981143 0.000801413765798 0)
(-0.0746613814293 0.000478749855644 0)
(-0.0751139058507 0.000180443893979 0)
(-0.0751517165752 -6.49795484061e-05 0)
(-0.0749505675986 -0.000242725204169 0)
(-0.0746334304569 -0.000375060012023 0)
(-0.0743002268353 -0.000438352460572 0)
(-0.0741549963506 -0.000387615998282 0)
(-0.0745413898861 -0.000242152421594 0)
(-0.0755359441795 -2.38550260891e-05 0)
(-0.0772535186024 0.000253046377207 0)
(-0.0797579637834 0.000571028808251 0)
(-0.0830790946888 0.000928342563953 0)
(-0.0871644820286 0.00133522715645 0)
(-0.0919461037253 0.00177076173494 0)
(-0.0973894567168 0.00218642776657 0)
(-0.103359570864 0.00255323395968 0)
(-0.109679806781 0.00286042345817 0)
(-0.116231464058 0.00309774345396 0)
(-0.122907096458 0.00325621988074 0)
(-0.129598407621 0.00333394247189 0)
(-0.136172307009 0.00333529898813 0)
(-0.142499209096 0.00326470852252 0)
(-0.148470518759 0.00312663522267 0)
(-0.154003068473 0.0029343498882 0)
(-0.159042832352 0.00270777421237 0)
(-0.163601459955 0.00247281844103 0)
(-0.167737206387 0.00226368058089 0)
(-0.171525528063 0.00210993058761 0)
(-0.17507961992 0.00202466792607 0)
(-0.178538668472 0.00201140682066 0)
(-0.182022015243 0.00206805692018 0)
(-0.185639695627 0.00218344017921 0)
(-0.189478490322 0.00234055294495 0)
(-0.193595817311 0.00252059764991 0)
(-0.198025574359 0.002707760721 0)
(-0.202781024533 0.00289307018601 0)
(-0.207852456907 0.00307358232522 0)
(-0.213211144345 0.00324565335153 0)
(-0.21882091421 0.00340149277691 0)
(-0.224636048718 0.00353434952811 0)
(-0.230598038647 0.00364121629248 0)
(-0.236649318055 0.0037210985398 0)
(-0.242737933388 0.00377407328288 0)
(-0.248816386102 0.00380056407203 0)
(-0.254840546938 0.0038009457554 0)
(-0.260766883863 0.00377500045801 0)
(-0.266550774507 0.00372072367462 0)
(-0.27214509085 0.00363332450434 0)
(-0.277496414114 0.00350382658115 0)
(-0.282536502315 0.00331682402377 0)
(-0.287169721438 0.00304753510809 0)
(-0.291254949773 0.00265856766677 0)
(-0.294569407711 0.00209460401525 0)
(-0.296751902269 0.00126394676468 0)
(-0.297290426636 1.57600156516e-05 0)
(-0.295553542339 -0.00181593845669 0)
(-0.290649012595 -0.00430382774981 0)
(-0.281359096044 -0.00761032042406 0)
(-0.26613179868 -0.0119142189094 0)
(-0.243061721956 -0.0173569183519 0)
(-0.210182658139 -0.0239417364418 0)
(-0.166416344392 -0.0312413258794 0)
(-0.113279187986 -0.0374747332789 0)
(-0.0560792241638 -0.0367031062953 0)
(-0.00577833974672 -0.00799017817694 0)
(-0.0130452238424 0.0267195234695 0)
(-0.0192189404676 0.00201285137718 0)
(-0.0207296127233 -0.00363532531705 0)
(-0.0205334287699 -0.0034770899408 0)
(-0.0207836783384 -0.00189259235278 0)
(-0.021324432505 -0.000461571434171 0)
(-0.0224907312854 0.000597948014711 0)
(-0.0240004744955 0.0013331633078 0)
(-0.0258623287657 0.0018140746363 0)
(-0.028045690598 0.00215433103557 0)
(-0.0304966478052 0.0024231595301 0)
(-0.0331913863951 0.00265556039159 0)
(-0.0361376198144 0.00286967800067 0)
(-0.0393531783068 0.00307366601803 0)
(-0.0428615779958 0.00327620180197 0)
(-0.0466956837524 0.00348581731427 0)
(-0.0508847126667 0.0037032832013 0)
(-0.0554341834624 0.00391726872342 0)
(-0.0602918256582 0.00411213652136 0)
(-0.0653196176306 0.0042671163124 0)
(-0.0703003786429 0.00434254180472 0)
(-0.0749872568295 0.00426481439418 0)
(-0.0791382911421 0.0039777715831 0)
(-0.0825466772972 0.00347944761981 0)
(-0.0850878730592 0.00282217713717 0)
(-0.0867039950089 0.00202750654733 0)
(-0.0873304019866 0.00112342087114 0)
(-0.0869433934181 0.000209390153855 0)
(-0.0856710503059 -0.000650031687076 0)
(-0.083772840372 -0.0014338930538 0)
(-0.0815524341116 -0.00208486102051 0)
(-0.0791159160683 -0.00256312250388 0)
(-0.0765495410805 -0.00286641192192 0)
(-0.0739645960792 -0.00305618247061 0)
(-0.0714342631397 -0.00315146402834 0)
(-0.0690250383449 -0.00315084407589 0)
(-0.0668056518867 -0.00305774959958 0)
(-0.0648255614239 -0.00289077563161 0)
(-0.0631230852786 -0.00268004872338 0)
(-0.061707692778 -0.00243069090172 0)
(-0.0605775175207 -0.00213882747997 0)
(-0.0597306033352 -0.00181494641246 0)
(-0.0591997162544 -0.00148718217334 0)
(-0.0589876150202 -0.0011769633804 0)
(-0.0591173494707 -0.00085792149353 0)
(-0.0596907103707 -0.000489679240476 0)
(-0.0607710860208 -6.92806004011e-05 0)
(-0.0623060135428 0.000375099406146 0)
(-0.0642221357072 0.000830175373371 0)
(-0.0663703134201 0.00123898774861 0)
(-0.0687216944293 0.00158231488686 0)
(-0.0712302950769 0.00184171835883 0)
(-0.0738220915132 0.00200338417969 0)
(-0.0764316779385 0.00207780017094 0)
(-0.0790150178377 0.00207638779657 0)
(-0.0815233217642 0.00202135556396 0)
(-0.0839082925227 0.00194296261088 0)
(-0.0861363116926 0.0018648306735 0)
(-0.0881912239604 0.00179896193854 0)
(-0.0900799292424 0.00174026804063 0)
(-0.0918176710826 0.00167295765525 0)
(-0.0934203557238 0.00159265547689 0)
(-0.0948986003335 0.00150591189925 0)
(-0.09626442231 0.00142341238915 0)
(-0.0975173795873 0.00134378866044 0)
(-0.0986423533896 0.00126151097598 0)
(-0.0996297063708 0.00116535704907 0)
(-0.100479320358 0.0010448436642 0)
(-0.101206480507 0.000898937237731 0)
(-0.101812419176 0.000736830257535 0)
(-0.10228202356 0.00057142913745 0)
(-0.102613143769 0.000415988503048 0)
(-0.102818496526 0.000277015576074 0)
(-0.102911860493 0.000153984679597 0)
(-0.102905806231 4.87910283976e-05 0)
(-0.102813646737 -3.75643758207e-05 0)
(-0.102622393947 -0.000119940496717 0)
(-0.102324292543 -0.0002095998594 0)
(-0.101921968011 -0.000312236127012 0)
(-0.101420848301 -0.000429841271755 0)
(-0.100825267602 -0.000562725889096 0)
(-0.100139268908 -0.000709596915871 0)
(-0.0993666305044 -0.000868504781364 0)
(-0.098518276128 -0.00103534945209 0)
(-0.0976127879381 -0.00120294662502 0)
(-0.0966767281764 -0.00136187148923 0)
(-0.0957418428635 -0.00150201470873 0)
(-0.0948444000913 -0.00161186533558 0)
(-0.094032949846 -0.00167576592087 0)
(-0.093367835039 -0.00167354043443 0)
(-0.0929223096795 -0.00158391175941 0)
(-0.0927741814266 -0.00139150330358 0)
(-0.0929858457474 -0.00108106490283 0)
(-0.0936670115182 -0.000657494791746 0)
(-0.0949166044614 -0.000169840569065 0)
(-0.0965650344566 0.000341034729417 0)
(-0.0984148558322 0.000867836855706 0)
(-0.10031017389 0.00139700944078 0)
(-0.102203749533 0.00188587980165 0)
(-0.104086821584 0.00229947658044 0)
(-0.105930822314 0.00259716738003 0)
(-0.107695277641 0.00274508746268 0)
(-0.109334370465 0.00272464400701 0)
(-0.110790822366 0.00253869426642 0)
(-0.112005071712 0.00221396246351 0)
(-0.112914248662 0.00179273311065 0)
(-0.113475742093 0.00131285889221 0)
(-0.113668760982 0.00080439480441 0)
(-0.113472779304 0.000303832247938 0)
(-0.112972300912 -0.000178308002147 0)
(-0.112124660935 -0.000669108314747 0)
(-0.110984032232 -0.00118987828397 0)
(-0.109621396263 -0.00171581101642 0)
(-0.108115427546 -0.00220634923726 0)
(-0.106586543537 -0.00261394535891 0)
(-0.105203088016 -0.00288600075104 0)
(-0.104163985112 -0.00296843471345 0)
(-0.103716112529 -0.00279905112341 0)
(-0.104114628742 -0.00229196056766 0)
(-0.105671242931 -0.00138265061566 0)
(-0.108735054076 -0.000154172874846 0)
(-0.112993764098 0.00132218189818 0)
(-0.117871397767 0.00303651142403 0)
(-0.122877525413 0.00484617534218 0)
(-0.128112335861 0.0064772019469 0)
(-0.13362662144 0.00768356825352 0)
(-0.139423195499 0.00833086328037 0)
(-0.145388125582 0.00844785560672 0)
(-0.15133259995 0.00815326707819 0)
(-0.157018660561 0.00759234364482 0)
(-0.162242048595 0.00686668450108 0)
(-0.166824030716 0.00601305281229 0)
(-0.17066392201 0.00505499548076 0)
(-0.173729339926 0.00398848079667 0)
(-0.176036157709 0.00286069389514 0)
(-0.177631306811 0.00178416205282 0)
(-0.178604542771 0.000883439096732 0)
(-0.179081197251 0.000234205694827 0)
(-0.179217145392 -0.000133369863606 0)
(-0.179244255931 -0.000221705287108 0)
(-0.179349492923 -4.01443847864e-06 0)
(-0.179713150603 0.000538531586725 0)
(-0.180385911725 0.00134620873646 0)
(-0.181609331705 0.00234916171922 0)
(-0.183479364206 0.00347273846979 0)
(-0.186037923096 0.00464962930889 0)
(-0.189295164345 0.00582891916789 0)
(-0.193216048287 0.0069612072406 0)
(-0.197734420267 0.0079841131642 0)
(-0.202773962932 0.00883986471448 0)
(-0.208246250644 0.00950226448322 0)
(-0.214041668321 0.00996736450078 0)
(-0.220034507947 0.0102312822132 0)
(-0.226091764535 0.0102868835448 0)
(-0.23206797344 0.0101378778385 0)
(-0.237818544956 0.00980608100016 0)
(-0.243210572648 0.00931485997481 0)
(-0.248129355496 0.00869136539595 0)
(-0.252490641614 0.00797742046345 0)
(-0.256251059378 0.00722714413325 0)
(-0.259413554723 0.00650183553061 0)
(-0.262027461013 0.00586831108019 0)
(-0.264180965976 0.0053833801954 0)
(-0.265991853449 0.00507713607034 0)
(-0.267591283791 0.0049550139448 0)
(-0.269104087522 0.00500617104006 0)
(-0.27063840081 0.00520608796697 0)
(-0.272277358473 0.00552181676026 0)
(-0.274077980253 0.00591818126276 0)
(-0.276076525582 0.00636116513026 0)
(-0.278290054707 0.00681920955387 0)
(-0.280711842404 0.00726315409634 0)
(-0.283311321182 0.00766405330226 0)
(-0.286043102139 0.00799425484425 0)
(-0.288856196382 0.00823519893794 0)
(-0.291696494861 0.00838280271623 0)
(-0.294508322804 0.00844427511415 0)
(-0.297237373193 0.0084287814826 0)
(-0.299833244155 0.00834310603916 0)
(-0.30225067354 0.00819139813494 0)
(-0.304448383011 0.00797443945369 0)
(-0.306386008971 0.00768875842292 0)
(-0.30802148206 0.00732596165169 0)
(-0.309306809205 0.0068689453004 0)
(-0.310180028447 0.00628492863847 0)
(-0.310554627966 0.00551590766871 0)
(-0.310304846288 0.00446887223336 0)
(-0.30924648708 0.00301311701838 0)
(-0.307098739224 0.000973846819403 0)
(-0.303605811766 -0.00189339306871 0)
(-0.298366754186 -0.0058796572538 0)
(-0.290680610162 -0.0113086322383 0)
(-0.279586817134 -0.018587991807 0)
(-0.263747172212 -0.0281345847309 0)
(-0.241489609873 -0.0402608649945 0)
(-0.211060142353 -0.0549304276068 0)
(-0.17129346426 -0.0711218905284 0)
(-0.12276456139 -0.0850868550211 0)
(-0.0693841834237 -0.0859806929913 0)
(-0.0228843296921 -0.0459182664174 0)
(-0.0104950246349 0.0414359942947 0)
(-0.0164689804134 0.00864988390476 0)
(-0.0204721786186 -0.00167137416436 0)
(-0.0227001507542 -0.00222377097965 0)
(-0.0248716507837 -0.000709565179047 0)
(-0.0268258263386 0.00100866678594 0)
(-0.0288335039506 0.00238813674519 0)
(-0.0310761960486 0.00342565235083 0)
(-0.0336012321349 0.00422844816636 0)
(-0.0364252584524 0.00487943027413 0)
(-0.0395687673235 0.00544705205134 0)
(-0.0430609608097 0.0059832330249 0)
(-0.0469347297105 0.00652805493462 0)
(-0.0512256782008 0.00711220466997 0)
(-0.0559885940769 0.00775131199208 0)
(-0.0612647147386 0.00843944724892 0)
(-0.0670347347913 0.00914095760521 0)
(-0.0731763752003 0.00976805824392 0)
(-0.0794529991494 0.0101830891075 0)
(-0.0855451436849 0.0102261025679 0)
(-0.0911305176324 0.00977233404017 0)
(-0.0959086019137 0.0088345522448 0)
(-0.099645012819 0.00752149181506 0)
(-0.102259796981 0.00590810769549 0)
(-0.103822903498 0.00415147281975 0)
(-0.104446793915 0.00230520191435 0)
(-0.104229579166 0.000435024210713 0)
(-0.103287223729 -0.00136607247457 0)
(-0.101681653871 -0.00287486286049 0)
(-0.0996547162362 -0.00398880743454 0)
(-0.0975028214594 -0.00474763475518 0)
(-0.0953865971648 -0.00522543077813 0)
(-0.0933739446841 -0.00547817441826 0)
(-0.0915639899442 -0.00549555801305 0)
(-0.090051345969 -0.00530943842017 0)
(-0.0888677689014 -0.00500055363634 0)
(-0.0880187285376 -0.00459459890892 0)
(-0.0874607271811 -0.00411250794676 0)
(-0.0871746419184 -0.00358099137214 0)
(-0.0871970788623 -0.00301593996783 0)
(-0.0875799661222 -0.00242204775907 0)
(-0.0883547701076 -0.0017782580305 0)
(-0.0895624067899 -0.00105701255035 0)
(-0.0913180071402 -0.000250608431323 0)
(-0.0934868455567 0.000601304053891 0)
(-0.0958636751781 0.00146080755393 0)
(-0.0983012619303 0.00228227938907 0)
(-0.100831455842 0.00304031397844 0)
(-0.10345664787 0.00371870673409 0)
(-0.106161471989 0.00428356466867 0)
(-0.1089273736 0.00472229413282 0)
(-0.111733429519 0.00503151888186 0)
(-0.114553512277 0.00520712791081 0)
(-0.11735411196 0.00526044911568 0)
(-0.120101891506 0.00520643808891 0)
(-0.122763023652 0.0050626723165 0)
(-0.125304683886 0.00484693681976 0)
(-0.127697635893 0.00457907237025 0)
(-0.129919185554 0.0042721921817 0)
(-0.131956665945 0.0039406519192 0)
(-0.133804676747 0.00360402367246 0)
(-0.13546512487 0.00328268357876 0)
(-0.136949813033 0.00298783015985 0)
(-0.138268967792 0.0027196977701 0)
(-0.139425262181 0.00247725934179 0)
(-0.140418148036 0.00225372953459 0)
(-0.141249481215 0.00203291797062 0)
(-0.141930229476 0.00179622493834 0)
(-0.14248560865 0.00153526129612 0)
(-0.142926575837 0.00125763703609 0)
(-0.143249020474 0.000977719599105 0)
(-0.143456165879 0.000707638235951 0)
(-0.143553486437 0.000455776286047 0)
(-0.143546149003 0.000225142219374 0)
(-0.143441989829 1.17652571193e-05 0)
(-0.143246907381 -0.00019294070471 0)
(-0.142965263382 -0.000395889703552 0)
(-0.142616206228 -0.000598308893597 0)
(-0.142213997487 -0.000798481729074 0)
(-0.141771738782 -0.000994315884012 0)
(-0.141306223976 -0.00118277347249 0)
(-0.140837318672 -0.00135836033327 0)
(-0.140387682117 -0.00151381128861 0)
(-0.139982217125 -0.00163885651649 0)
(-0.139649241644 -0.00171991187446 0)
(-0.139420476003 -0.00174142141544 0)
(-0.139328148442 -0.00168791905652 0)
(-0.139403062728 -0.00154563787028 0)
(-0.139676161675 -0.00130420110858 0)
(-0.140171468811 -0.000956461279362 0)
(-0.140899937118 -0.000493147128812 0)
(-0.141861324585 7.37309479864e-05 0)
(-0.143017937645 0.000714764275584 0)
(-0.144233790406 0.00136534199355 0)
(-0.145480652298 0.00195099279814 0)
(-0.146852500186 0.00244183634557 0)
(-0.148357107788 0.00284314404409 0)
(-0.149964433486 0.00318082006055 0)
(-0.151603870185 0.00347339541137 0)
(-0.153203373551 0.00370755673521 0)
(-0.154708092046 0.00384718001039 0)
(-0.156075720626 0.00384378717691 0)
(-0.157266319884 0.0036579467375 0)
(-0.15824283059 0.00327708694571 0)
(-0.158983757217 0.00271577176408 0)
(-0.159481946865 0.00201080541811 0)
(-0.15972589896 0.00121304219247 0)
(-0.159708961966 0.000382317378326 0)
(-0.15946047113 -0.00043528860349 0)
(-0.158995826105 -0.00123377837499 0)
(-0.158388435268 -0.00199607147584 0)
(-0.157754405186 -0.00265259355906 0)
(-0.157217487997 -0.00313270757076 0)
(-0.156911317529 -0.00336370552816 0)
(-0.156964986648 -0.00327377467113 0)
(-0.15748956901 -0.00281040762375 0)
(-0.158566978351 -0.00195633633684 0)
(-0.160266062034 -0.000721374315668 0)
(-0.162645087939 0.000853559095462 0)
(-0.165442339389 0.002615735083 0)
(-0.168427271225 0.00439153494908 0)
(-0.171857240606 0.00613392483565 0)
(-0.175804377506 0.0078795765153 0)
(-0.180150129872 0.00965930161158 0)
(-0.184723674512 0.0113594861051 0)
(-0.189406494173 0.0127488523017 0)
(-0.194143722394 0.0136208801591 0)
(-0.198876037955 0.0138773913809 0)
(-0.20348277629 0.0135213511865 0)
(-0.207786815821 0.0126170719341 0)
(-0.211620612519 0.0112610175658 0)
(-0.214851815535 0.00959282719617 0)
(-0.217419169574 0.00778128726262 0)
(-0.219337781257 0.0059636608499 0)
(-0.220666251059 0.00423486562848 0)
(-0.221484394982 0.00268780606276 0)
(-0.221891897321 0.00141547977982 0)
(-0.22200501862 0.000484812094703 0)
(-0.221953109058 -6.44954267079e-05 0)
(-0.221873959231 -0.000206388945048 0)
(-0.221930848523 8.70330272661e-05 0)
(-0.222216845487 0.000824925495682 0)
(-0.222841634422 0.00198320087805 0)
(-0.223866098108 0.00347879280112 0)
(-0.22533405202 0.00518079003842 0)
(-0.227265948605 0.00695384881919 0)
(-0.229665990324 0.00869209503076 0)
(-0.232501826026 0.0103228213328 0)
(-0.235713479607 0.0117882732009 0)
(-0.239224230441 0.0130263533673 0)
(-0.242944305495 0.013991497045 0)
(-0.246768747586 0.0146611034155 0)
(-0.250588865457 0.015022807735 0)
(-0.254306939947 0.0150607504345 0)
(-0.257827392231 0.0147605879768 0)
(-0.261053974901 0.0141325522479 0)
(-0.263895981074 0.0132103583077 0)
(-0.266272294306 0.0120499032051 0)
(-0.268119589451 0.0107316186964 0)
(-0.269407702071 0.00935265929155 0)
(-0.270156289482 0.00802335094284 0)
(-0.270442368843 0.0068655739421 0)
(-0.270388338665 0.00598377158358 0)
(-0.270133115258 0.0054289027667 0)
(-0.269803163012 0.00519650992936 0)
(-0.269497794846 0.00525375848513 0)
(-0.269288868684 0.00554662801199 0)
(-0.269220473934 0.00600615881814 0)
(-0.269312001476 0.00656496392239 0)
(-0.269564909908 0.00716398394859 0)
(-0.269965972086 0.0077529151003 0)
(-0.270488818469 0.00828786002458 0)
(-0.271097295187 0.00873389593754 0)
(-0.27174992591 0.00906630169868 0)
(-0.272403428249 0.00926982459358 0)
(-0.273016234375 0.00933851252652 0)
(-0.273549935273 0.00927426292247 0)
(-0.273972119496 0.00908365849898 0)
(-0.274256437626 0.00877545471969 0)
(-0.274381435141 0.00835828561443 0)
(-0.274330343592 0.0078367123378 0)
(-0.274092482724 0.00720861351089 0)
(-0.273662678255 0.00646257242591 0)
(-0.273037945579 0.00557313940647 0)
(-0.272213045803 0.00449341356336 0)
(-0.271171494556 0.0031426881139 0)
(-0.269857094755 0.00139134210193 0)
(-0.268129720888 -0.000939306931156 0)
(-0.265951667196 -0.00402774223783 0)
(-0.263219855465 -0.00816452370771 0)
(-0.25938916736 -0.0138518817206 0)
(-0.253894250203 -0.0217474976598 0)
(-0.245899420654 -0.032544007424 0)
(-0.234214402587 -0.0469201891532 0)
(-0.21729504613 -0.0654008137745 0)
(-0.193409004153 -0.0879438950495 0)
(-0.161019991986 -0.112986777856 0)
(-0.119471032212 -0.135193971185 0)
(-0.0705982339173 -0.140286253628 0)
(-0.02584183411 -0.0917006562961 0)
(-0.00878793133727 0.0537317162796 0)
(-0.0149340060768 0.0152470337229 0)
(-0.0200034113847 0.00188798618621 0)
(-0.0235780954977 0.000584905418187 0)
(-0.0267431709284 0.00185972763162 0)
(-0.0294151963419 0.00348236830977 0)
(-0.0321538861268 0.00494512681601 0)
(-0.0350367651938 0.00614777074524 0)
(-0.0381339821837 0.00718411208812 0)
(-0.041509650608 0.00813116939749 0)
(-0.0452198190598 0.00905690538875 0)
(-0.0493244362703 0.0100129219191 0)
(-0.0538903454687 0.0110334398769 0)
(-0.0589834095954 0.0121403863566 0)
(-0.0646389599184 0.0133278547669 0)
(-0.0708239442553 0.0145407979517 0)
(-0.0774066301098 0.0156411705699 0)
(-0.0841407012041 0.0164037405352 0)
(-0.0906872281607 0.0165740654908 0)
(-0.0967072284675 0.0159772664213 0)
(-0.101901680981 0.0146322230655 0)
(-0.106027528795 0.012699994439 0)
(-0.108950367784 0.0103244564293 0)
(-0.110724708607 0.00774022146213 0)
(-0.111618143283 0.00518096678208 0)
(-0.111941506793 0.00272627760172 0)
(-0.111791047208 0.000344939198744 0)
(-0.111185703856 -0.00195402298748 0)
(-0.110213601337 -0.00391426193724 0)
(-0.109111276006 -0.00534334867045 0)
(-0.108061129127 -0.0061926766171 0)
(-0.107205543517 -0.00657271624425 0)
(-0.106613785211 -0.00659093310617 0)
(-0.106325235222 -0.00630131919088 0)
(-0.106365728657 -0.00580443562367 0)
(-0.106740197091 -0.00520955423934 0)
(-0.107442684077 -0.00453313027605 0)
(-0.108470228374 -0.0037749206504 0)
(-0.109823088993 -0.00293456047154 0)
(-0.111517776448 -0.00200463978469 0)
(-0.113559946164 -0.000980373753392 0)
(-0.11594962895 0.000127204058617 0)
(-0.118481057017 0.00126762626638 0)
(-0.120940244375 0.00237422943217 0)
(-0.123351972434 0.00337438879263 0)
(-0.125799624148 0.00425951231735 0)
(-0.128307436606 0.00505281229705 0)
(-0.130847378655 0.00577117548902 0)
(-0.133392614337 0.00641415954673 0)
(-0.135928191801 0.00696373959401 0)
(-0.138440237109 0.00739290292616 0)
(-0.140912860614 0.00768089077715 0)
(-0.143329734113 0.00781627503823 0)
(-0.145674362728 0.00780086237688 0)
(-0.147932328894 0.00764787215654 0)
(-0.150089534758 0.00737982765376 0)
(-0.152131160173 0.00702769252831 0)
(-0.154044061486 0.00662474191192 0)
(-0.15581730015 0.00619369116902 0)
(-0.15744006971 0.00574985001004 0)
(-0.158899716528 0.00530315761456 0)
(-0.160182884006 0.00485738001353 0)
(-0.161284389235 0.00441084728347 0)
(-0.162214432839 0.00396116430551 0)
(-0.162996334256 0.0035111985822 0)
(-0.163658877553 0.00306877102089 0)
(-0.164220863557 0.00263896925425 0)
(-0.164680246277 0.00222030826021 0)
(-0.165030703708 0.00180770912778 0)
(-0.165274134845 0.00140310889676 0)
(-0.165421345803 0.00101426803765 0)
(-0.165486795438 0.000648605218517 0)
(-0.165484970404 0.000311877219058 0)
(-0.165429541805 6.26489543541e-06 0)
(-0.165331608452 -0.000272393239639 0)
(-0.165199236847 -0.000533986716772 0)
(-0.165060766769 -0.000775572024119 0)
(-0.164932390062 -0.000996400720626 0)
(-0.164826007488 -0.00119788251935 0)
(-0.164753325666 -0.00137963835055 0)
(-0.164726323782 -0.00153841296992 0)
(-0.164756567088 -0.00166880900657 0)
(-0.164855648226 -0.0017627969317 0)
(-0.165035662711 -0.00180931612276 0)
(-0.16530871167 -0.00179617585253 0)
(-0.16568431981 -0.00171177153502 0)
(-0.166166393436 -0.00154605296197 0)
(-0.166753976664 -0.00129173119193 0)
(-0.167442984759 -0.000947362143348 0)
(-0.168220383731 -0.000510609562663 0)
(-0.169080715946 1.77635697711e-05 0)
(-0.169982786971 0.000637311935924 0)
(-0.170908238022 0.00132432972338 0)
(-0.171918533968 0.00205310616549 0)
(-0.173023977027 0.0027984726139 0)
(-0.174219302631 0.00351156193535 0)
(-0.175485156073 0.0041390858653 0)
(-0.176784712711 0.00464706595724 0)
(-0.178061174393 0.00501488141286 0)
(-0.179252767709 0.00522231174852 0)
(-0.180312342359 0.0052476900819 0)
(-0.181211824745 0.00507234162734 0)
(-0.181937589676 0.00468875769371 0)
(-0.182488389192 0.00410548194269 0)
(-0.182871197685 0.00334806756681 0)
(-0.183093199835 0.00246000854516 0)
(-0.183162073658 0.00150250360611 0)
(-0.183091623383 0.000540559644553 0)
(-0.182912283452 -0.000376824570722 0)
(-0.18267315329 -0.00120465727374 0)
(-0.182496678014 -0.00187799672611 0)
(-0.182467510842 -0.00233793306922 0)
(-0.182659261196 -0.00253436289868 0)
(-0.183131059224 -0.00242303769375 0)
(-0.183930526529 -0.00197956593018 0)
(-0.185094566323 -0.00120457564203 0)
(-0.186627574473 -0.000101924335877 0)
(-0.188472131845 0.00132871248476 0)
(-0.19052556377 0.00304996051868 0)
(-0.192899037158 0.00501931896574 0)
(-0.195607085833 0.00720110763927 0)
(-0.198622461556 0.0094693003807 0)
(-0.201883381961 0.0116868671395 0)
(-0.205268404119 0.0137471208768 0)
(-0.208625348013 0.01551483525 0)
(-0.211837923168 0.016816345374 0)
(-0.214844041313 0.0175151403568 0)
(-0.217605223719 0.0175575875322 0)
(-0.220071726119 0.0169507988811 0)
(-0.22217897773 0.0157281673022 0)
(-0.223863378044 0.0139764137164 0)
(-0.225073901036 0.0118551473481 0)
(-0.22578960689 0.00954219170457 0)
(-0.226042985523 0.00720167119565 0)
(-0.225916997933 0.00498032320097 0)
(-0.225528891556 0.00301303248468 0)
(-0.22501622148 0.0014177025548 0)
(-0.22451383753 0.000295142303113 0)
(-0.224140878151 -0.000280781215122 0)
(-0.224004193409 -0.000276172479672 0)
(-0.224119273434 0.000279073613664 0)
(-0.224468337517 0.0013337370851 0)
(-0.225070598429 0.00282954885966 0)
(-0.225930924944 0.00466431613621 0)
(-0.227055280992 0.00670835754974 0)
(-0.228439290933 0.00883399334539 0)
(-0.230065060463 0.0109303903302 0)
(-0.231894667041 0.0128898898049 0)
(-0.233868398525 0.0146136794834 0)
(-0.235909794063 0.0160202710492 0)
(-0.237931534798 0.0170515736006 0)
(-0.239841514722 0.0176726665439 0)
(-0.241557390741 0.0178673372091 0)
(-0.243020171792 0.0176353068104 0)
(-0.244188363501 0.0169924744232 0)
(-0.245023392716 0.0159663382116 0)
(-0.245480924376 0.014593953711 0)
(-0.245509144639 0.0129353864082 0)
(-0.245062700942 0.0110923248683 0)
(-0.244128597159 0.00920605047807 0)
(-0.242743359956 0.00744294592276 0)
(-0.241004184497 0.00597801784732 0)
(-0.239068513282 0.00494326616843 0)
(-0.237109885168 0.0043687211175 0)
(-0.235260212385 0.00419817283361 0)
(-0.23360339996 0.00437062726301 0)
(-0.232188533765 0.00481481294464 0)
(-0.231023817561 0.0054472554399 0)
(-0.230086842634 0.00618656687177 0)
(-0.229343639512 0.00696242862665 0)
(-0.228756253213 0.00771291857127 0)
(-0.228280334069 0.00837888554904 0)
(-0.227861153462 0.00891392490545 0)
(-0.227448517575 0.00928817214067 0)
(-0.226999769146 0.00948863541921 0)
(-0.2264805245 0.00951845200167 0)
(-0.225865317629 0.0093913495655 0)
(-0.225137188173 0.00912523649324 0)