/*--------------------------------*- C++ -*----------------------------------*\
  =========                 |
  \\      /  F ield         | OpenFOAM: The Open Source CFD Toolbox
   \\    /   O peration     | Website:  https://openfoam.org
    \\  /    A nd           | Version:  12
     \\/     M anipulation  |
\*---------------------------------------------------------------------------*/
FoamFile
{
    format      ascii;
    class       surfaceScalarField;
    location    "10.03";
    object      phi;
}
// * * * * * * * * * * * * * * * * * * * * * * * * * * * * * * * * * * * * * //

dimensions      [1 0 -1 0 0 0 0];

internalField   nonuniform List<scalar> 
79600
(
-9.03308e-06
9.03332e-06
-9.54262e-06
5.09502e-07
-7.81318e-06
-1.72966e-06
-6.09771e-06
-1.71574e-06
-4.8012e-06
-1.29677e-06
-3.88743e-06
-9.14043e-07
-3.24991e-06
-6.3781e-07
-2.79814e-06
-4.52046e-07
-2.47076e-06
-3.27646e-07
-2.22824e-06
-2.42795e-07
-2.04475e-06
-1.8377e-07
-1.90338e-06
-1.4164e-07
-1.79287e-06
-1.10791e-07
-1.7055e-06
-8.76469e-08
-1.63589e-06
-6.98873e-08
-1.58019e-06
-5.59697e-08
-1.53561e-06
-4.48608e-08
-1.50004e-06
-3.58426e-08
-1.4719e-06
-2.84122e-08
-1.44999e-06
-2.21922e-08
-1.43334e-06
-1.69245e-08
-1.4212e-06
-1.24158e-08
-1.41295e-06
-8.52523e-09
-1.40815e-06
-5.07053e-09
-1.40693e-06
-1.49729e-09
-1.40847e-06
1.2652e-09
-1.41213e-06
3.38195e-09
-1.41803e-06
5.62156e-09
-1.42618e-06
7.87586e-09
-1.4363e-06
9.84329e-09
-1.44816e-06
1.15854e-08
-1.46162e-06
1.31842e-08
-1.47658e-06
1.46862e-08
-1.49298e-06
1.61233e-08
-1.51076e-06
1.75041e-08
-1.52989e-06
1.88557e-08
-1.55034e-06
2.01759e-08
-1.5721e-06
2.14878e-08
-1.59517e-06
2.27905e-08
-1.61954e-06
2.40964e-08
-1.64523e-06
2.54101e-08
-1.67224e-06
2.67342e-08
-1.7006e-06
2.80834e-08
-1.73033e-06
2.94594e-08
-1.76148e-06
3.08668e-08
-1.79406e-06
3.23095e-08
-1.82814e-06
3.38044e-08
-1.86376e-06
3.53426e-08
-1.90098e-06
3.69417e-08
-1.93986e-06
3.85991e-08
-1.98046e-06
4.03304e-08
-2.02287e-06
4.21339e-08
-2.06717e-06
4.40192e-08
-2.11344e-06
4.59952e-08
-2.16179e-06
4.80687e-08
-2.2123e-06
5.024e-08
-2.2651e-06
5.2524e-08
-2.32031e-06
5.49293e-08
-2.37806e-06
5.74691e-08
-2.43848e-06
6.01483e-08
-2.50173e-06
6.29737e-08
-2.56798e-06
6.59648e-08
-2.63739e-06
6.91345e-08
-2.71016e-06
7.24963e-08
-2.78651e-06
7.60718e-08
-2.86665e-06
7.9861e-08
-2.95083e-06
8.39002e-08
-3.03931e-06
8.82037e-08
-3.13238e-06
9.27897e-08
-3.23034e-06
9.76804e-08
-3.33353e-06
1.02913e-07
-3.44231e-06
1.08501e-07
-3.55707e-06
1.14476e-07
-3.67823e-06
1.20879e-07
-3.80625e-06
1.27742e-07
-3.94163e-06
1.351e-07
-4.08491e-06
1.43007e-07
-4.2367e-06
1.51509e-07
-4.39764e-06
1.60652e-07
-4.5684e-06
1.70489e-07
-4.74977e-06
1.81087e-07
-4.94257e-06
1.92519e-07
-5.14771e-06
2.04856e-07
-5.36617e-06
2.18174e-07
-5.59903e-06
2.32584e-07
-5.8475e-06
2.48185e-07
-6.11292e-06
2.6514e-07
-6.39677e-06
2.83563e-07
-6.70075e-06
3.03699e-07
-7.02673e-06
3.25699e-07
-7.37692e-06
3.49901e-07
-7.75382e-06
3.76619e-07
-8.16038e-06
4.06271e-07
-8.60004e-06
4.39377e-07
-9.07679e-06
4.76467e-07
-9.59523e-06
5.18147e-07
-1.01601e-05
5.64563e-07
-1.0776e-05
6.15563e-07
-1.14461e-05
6.69631e-07
-1.21694e-05
7.22806e-07
-1.29387e-05
7.6842e-07
-1.37356e-05
7.9574e-07
-1.45294e-05
7.91948e-07
-1.52759e-05
7.43881e-07
-1.59234e-05
6.43835e-07
-1.64202e-05
4.91926e-07
-1.67244e-05
2.98042e-07
-1.68143e-05
8.23466e-08
-1.66775e-05
-1.46006e-07
-1.63042e-05
-3.84182e-07
-1.57069e-05
-6.09589e-07
-1.49065e-05
-8.13578e-07
-1.39385e-05
-9.81493e-07
-1.28494e-05
-1.1025e-06
-1.16907e-05
-1.17144e-06
-1.05157e-05
-1.18694e-06
-9.37594e-06
-1.15065e-06
-8.31991e-06
-1.06582e-06
-7.39132e-06
-9.37285e-07
-6.62726e-06
-7.71668e-07
-6.05566e-06
-5.78224e-07
-5.69234e-06
-3.69031e-07
-5.53939e-06
-1.57922e-07
-5.60165e-06
5.78263e-08
-5.88386e-06
2.78026e-07
-6.36235e-06
4.7446e-07
-6.97791e-06
6.11526e-07
-7.66493e-06
6.82947e-07
-8.3709e-06
7.0163e-07
-9.06567e-06
6.9011e-07
-9.74451e-06
6.73766e-07
-1.04267e-05
6.76648e-07
-1.11449e-05
7.12313e-07
-1.19305e-05
7.79271e-07
-1.27993e-05
8.62131e-07
-1.37447e-05
9.38492e-07
-1.47392e-05
9.87352e-07
-1.57422e-05
9.9594e-07
-1.6711e-05
9.61876e-07
-1.76089e-05
8.91404e-07
-1.84097e-05
7.94864e-07
-1.90985e-05
6.83857e-07
-1.96707e-05
5.68159e-07
-2.01299e-05
4.56223e-07
-2.04863e-05
3.545e-07
-2.0755e-05
2.67424e-07
-2.09536e-05
1.98008e-07
-2.11021e-05
1.4827e-07
-2.12211e-05
1.19023e-07
-2.13311e-05
1.10121e-07
-2.14527e-05
1.21753e-07
-2.16069e-05
1.54441e-07
-2.18156e-05
2.088e-07
-2.20989e-05
2.83513e-07
-2.24761e-05
3.77347e-07
-2.29645e-05
4.88463e-07
-2.35795e-05
6.15004e-07
-2.43345e-05
7.55014e-07
-2.52409e-05
9.06334e-07
-2.63075e-05
1.06656e-06
-2.75405e-05
1.23292e-06
-2.89429e-05
1.40219e-06
-3.05151e-05
1.57196e-06
-3.22547e-05
1.73934e-06
-3.41566e-05
1.90164e-06
-3.62131e-05
2.05627e-06
-3.84147e-05
2.20124e-06
-4.07499e-05
2.33474e-06
-4.32057e-05
2.45538e-06
-4.57681e-05
2.56206e-06
-4.84226e-05
2.65411e-06
-5.11542e-05
2.73115e-06
-5.39474e-05
2.79286e-06
-5.67872e-05
2.83934e-06
-5.96582e-05
2.87074e-06
-6.25453e-05
2.88658e-06
-6.54322e-05
2.88654e-06
-6.83022e-05
2.86963e-06
-7.11363e-05
2.83384e-06
-7.39128e-05
2.77613e-06
-7.66046e-05
2.69134e-06
-7.91771e-05
2.57216e-06
-8.15865e-05
2.40895e-06
-8.3775e-05
2.18821e-06
-8.56663e-05
1.89087e-06
-8.71603e-05
1.49363e-06
-8.81319e-05
9.71246e-07
-8.83705e-05
2.38081e-07
-8.77482e-05
-6.23195e-07
-8.6103e-05
-1.64634e-06
-8.30219e-05
-3.08221e-06
-7.72448e-05
-5.77792e-06
-7.0468e-05
-6.77845e-06
-6.00699e-05
-1.0399e-05
-4.68359e-05
-1.32346e-05
-3.08947e-05
-1.59414e-05
-1.36916e-05
-1.72034e-05
1.49419e-06
-1.5186e-05
6.88673e-06
-5.39291e-06
6.88646e-06
-7.31631e-06
1.63503e-05
-9.99867e-06
3.19189e-06
-9.88974e-06
-1.83879e-06
-8.99261e-06
-2.61311e-06
-8.02838e-06
-2.26128e-06
-7.18662e-06
-1.75605e-06
-6.49389e-06
-1.33083e-06
-5.93467e-06
-1.01155e-06
-5.48385e-06
-7.78734e-07
-5.11908e-06
-6.07846e-07
-4.82218e-06
-4.80942e-07
-4.57903e-06
-3.85071e-07
-4.37876e-06
-3.11334e-07
-4.21306e-06
-2.53626e-07
-4.0755e-06
-2.07716e-07
-3.96113e-06
-1.70616e-07
-3.86606e-06
-1.40213e-07
-3.78721e-06
-1.14964e-07
-3.72215e-06
-9.37473e-08
-3.66891e-06
-7.57054e-08
-3.62592e-06
-6.01949e-08
-3.59189e-06
-4.67214e-08
-3.5658e-06
-3.48913e-08
-3.54679e-06
-2.43583e-08
-3.5337e-06
-1.48545e-08
-3.5261e-06
-6.61707e-09
-3.52295e-06
-3.67647e-11
-3.52538e-06
7.77273e-09
-3.53246e-06
1.46831e-08
-3.5436e-06
2.07076e-08
-3.55843e-06
2.61377e-08
-3.57668e-06
3.1158e-08
-3.59815e-06
3.58822e-08
-3.62268e-06
4.0374e-08
-3.65013e-06
4.4682e-08
-3.6804e-06
4.88509e-08
-3.71342e-06
5.29144e-08
-3.74912e-06
5.69128e-08
-3.78746e-06
6.08572e-08
-3.82842e-06
6.47811e-08
-3.87199e-06
6.86982e-08
-3.91817e-06
7.26364e-08
-3.96697e-06
7.66103e-08
-4.01842e-06
8.06348e-08
-4.07257e-06
8.47402e-08
-4.12946e-06
8.89239e-08
-4.18916e-06
9.32237e-08
-4.25173e-06
9.76361e-08
-4.31725e-06
1.02188e-07
-4.38583e-06
1.06903e-07
-4.45757e-06
1.11793e-07
-4.53259e-06
1.16877e-07
-4.61101e-06
1.22168e-07
-4.69298e-06
1.27689e-07
-4.77866e-06
1.33469e-07
-4.86822e-06
1.39517e-07
-4.96183e-06
1.45866e-07
-5.05972e-06
1.52535e-07
-5.16208e-06
1.5955e-07
-5.26915e-06
1.6695e-07
-5.38121e-06
1.74754e-07
-5.49853e-06
1.83003e-07
-5.6214e-06
1.91731e-07
-5.75017e-06
2.00982e-07
-5.88517e-06
2.10799e-07
-6.02681e-06
2.21224e-07
-6.1755e-06
2.32312e-07
-6.3317e-06
2.44121e-07
-6.49589e-06
2.56707e-07
-6.66863e-06
2.70142e-07
-6.8505e-06
2.84502e-07
-7.04213e-06
2.99849e-07
-7.24422e-06
3.16287e-07
-7.45753e-06
3.33915e-07
-7.68291e-06
3.52836e-07
-7.92124e-06
3.73157e-07
-8.17353e-06
3.95018e-07
-8.44089e-06
4.1858e-07
-8.72451e-06
4.43999e-07
-9.02574e-06
4.71436e-07
-9.34603e-06
5.01096e-07
-9.687e-06
5.33209e-07
-1.00505e-05
5.68071e-07
-1.04385e-05
6.0592e-07
-1.08534e-05
6.47152e-07
-1.12976e-05
6.92112e-07
-1.17741e-05
7.41336e-07
-1.22862e-05
7.95385e-07
-1.28377e-05
8.54984e-07
-1.34334e-05
9.21071e-07
-1.40785e-05
9.94764e-07
-1.47798e-05
1.0776e-06
-1.55454e-05
1.17162e-06
-1.63857e-05
1.27931e-06
-1.73133e-05
1.40378e-06
-1.83439e-05
1.54838e-06
-1.94947e-05
1.7149e-06
-2.07818e-05
1.90198e-06
-2.22145e-05
2.10114e-06
-2.37862e-05
2.29258e-06
-2.54654e-05
2.44452e-06
-2.71901e-05
2.51573e-06
-2.88697e-05
2.46473e-06
-3.03966e-05
2.26165e-06
-3.16633e-05
1.899e-06
-3.25797e-05
1.39454e-06
-3.30839e-05
7.86388e-07
-3.31314e-05
1.12392e-07
-3.27301e-05
-5.66348e-07
-3.19229e-05
-1.21088e-06
-3.07786e-05
-1.7726e-06
-2.93906e-05
-2.2186e-06
-2.78526e-05
-2.53443e-06
-2.62482e-05
-2.71971e-06
-2.46479e-05
-2.78244e-06
-2.31102e-05
-2.73326e-06
-2.16851e-05
-2.58269e-06
-2.04155e-05
-2.34072e-06
-1.93393e-05
-2.01749e-06
-1.84892e-05
-1.62451e-06
-1.7893e-05
-1.17612e-06
-1.75776e-05
-6.85301e-07
-1.76016e-05
-1.34307e-07
-1.80386e-05
4.94385e-07
-1.88993e-05
1.13826e-06
-2.01536e-05
1.72778e-06
-2.17646e-05
2.22076e-06
-2.36867e-05
2.60208e-06
-2.58675e-05
2.87815e-06
-2.82521e-05
3.06922e-06
-3.07845e-05
3.1999e-06
-3.34042e-05
3.28988e-06
-3.60466e-05
3.34834e-06
-3.8648e-05
3.37462e-06
-4.11524e-05
3.36112e-06
-4.35169e-05
3.29823e-06
-4.57122e-05
3.17849e-06
-4.77195e-05
2.99964e-06
-4.95275e-05
2.76703e-06
-5.11304e-05
2.49203e-06
-5.25273e-05
2.19016e-06
-5.37231e-05
1.87856e-06
-5.47288e-05
1.5731e-06
-5.55609e-05
1.28789e-06
-5.6241e-05
1.03437e-06
-5.67945e-05
8.2083e-07
-5.72494e-05
6.52776e-07
-5.76345e-05
5.3324e-07
-5.7979e-05
4.63349e-07
-5.83119e-05
4.42938e-07
-5.8661e-05
4.70594e-07
-5.90509e-05
5.44197e-07
-5.95035e-05
6.61145e-07
-6.00382e-05
8.1786e-07
-6.06719e-05
1.01066e-06
-6.14186e-05
1.23479e-06
-6.22892e-05
1.48512e-06
-6.32911e-05
1.75651e-06
-6.44286e-05
2.04331e-06
-6.57024e-05
2.33998e-06
-6.71107e-05
2.64067e-06
-6.86483e-05
2.93939e-06
-7.03075e-05
3.23076e-06
-7.2078e-05
3.50947e-06
-7.39475e-05
3.77058e-06
-7.59017e-05
4.01006e-06
-7.79251e-05
4.22423e-06
-8.00011e-05
4.41039e-06
-8.21126e-05
4.56656e-06
-8.42423e-05
4.69133e-06
-8.63726e-05
4.78412e-06
-8.84865e-05
4.84475e-06
-9.05672e-05
4.87326e-06
-9.25982e-05
4.87005e-06
-9.4563e-05
4.83527e-06
-9.64452e-05
4.76852e-06
-9.82274e-05
4.66859e-06
-9.98912e-05
4.53318e-06
-0.000101416
4.35834e-06
-0.000102778
4.13797e-06
-0.00010395
3.86357e-06
-0.000104902
3.52341e-06
-0.000105594
3.10039e-06
-0.000105973
2.56717e-06
-0.000105964
1.88208e-06
-0.000105456
9.85003e-07
-0.000104271
-2.13971e-07
-0.000102383
-1.65141e-06
-9.95355e-05
-3.47086e-06
-9.54927e-05
-5.68972e-06
-9.00486e-05
-8.52678e-06
-8.37101e-05
-1.21171e-05
-7.53386e-05
-1.51511e-05
-6.50811e-05
-2.06565e-05
-5.2576e-05
-2.57392e-05
-3.825e-05
-3.02667e-05
-2.29004e-05
-3.25524e-05
-8.53183e-06
-2.95543e-05
1.79496e-06
-1.572e-05
8.68134e-06
-5.84468e-06
2.21963e-05
-8.86313e-06
6.21057e-06
-9.60713e-06
-1.09497e-06
-9.42714e-06
-2.79332e-06
-8.95303e-06
-2.73565e-06
-8.42446e-06
-2.28492e-06
-7.92437e-06
-1.83116e-06
-7.47865e-06
-1.45758e-06
-7.0911e-06
-1.16655e-06
-6.75807e-06
-9.41151e-07
-6.47338e-06
-7.65911e-07
-6.23053e-06
-6.28196e-07
-6.02351e-06
-5.18631e-07
-5.84708e-06
-4.30331e-07
-5.69679e-06
-3.58278e-07
-5.56891e-06
-2.98777e-07
-5.46032e-06
-2.49073e-07
-5.36844e-06
-2.07121e-07
-5.29113e-06
-1.71336e-07
-5.22658e-06
-1.40528e-07
-5.1733e-06
-1.13755e-07
-5.13002e-06
-9.02758e-08
-5.09569e-06
-6.94938e-08
-5.0694e-06
-5.09229e-08
-5.05033e-06
-3.41988e-08
-5.03794e-06
-1.9287e-08
-5.03146e-06
-6.7879e-09
-5.0295e-06
5.53422e-09
-5.03392e-06
1.88225e-08
-5.04309e-06
2.96099e-08
-5.05664e-06
3.94105e-08
-5.07435e-06
4.85913e-08
-5.09603e-06
5.72882e-08
-5.12151e-06
6.55777e-08
-5.15065e-06
7.35432e-08
-5.18331e-06
8.12366e-08
-5.21941e-06
8.87361e-08
-5.25885e-06
9.60815e-08
-5.30159e-06
1.03325e-07
-5.34759e-06
1.10502e-07
-5.39682e-06
1.17656e-07
-5.44929e-06
1.24831e-07
-5.50501e-06
1.32049e-07
-5.564e-06
1.39346e-07
-5.62629e-06
1.46754e-07
-5.69194e-06
1.54304e-07
-5.76102e-06
1.62027e-07
-5.83361e-06
1.69951e-07
-5.9098e-06
1.78101e-07
-5.9897e-06
1.86523e-07
-6.07342e-06
1.95232e-07
-6.16109e-06
2.04278e-07
-6.25288e-06
2.13675e-07
-6.34893e-06
2.2347e-07
-6.44944e-06
2.33699e-07
-6.55461e-06
2.44403e-07
-6.66463e-06
2.55614e-07
-6.77977e-06
2.67393e-07
-6.90026e-06
2.79767e-07
-7.0264e-06
2.92813e-07
-7.15848e-06
3.06561e-07
-7.29684e-06
3.21086e-07
-7.44184e-06
3.36453e-07
-7.59387e-06
3.52729e-07
-7.75335e-06
3.69999e-07
-7.92074e-06
3.88338e-07
-8.09655e-06
4.07846e-07
-8.28133e-06
4.28622e-07
-8.47567e-06
4.50767e-07
-8.68022e-06
4.74412e-07
-8.8957e-06
4.99706e-07
-9.1229e-06
5.26766e-07
-9.36264e-06
5.5575e-07
-9.61588e-06
5.86872e-07
-9.88365e-06
6.20327e-07
-1.01671e-05
6.56297e-07
-1.04674e-05
6.95081e-07
-1.0786e-05
7.36895e-07
-1.11244e-05
7.82138e-07
-1.14844e-05
8.31085e-07
-1.18677e-05
8.84173e-07
-1.22767e-05
9.41873e-07
-1.27135e-05
1.00463e-06
-1.3181e-05
1.07315e-06
-1.36822e-05
1.14809e-06
-1.42207e-05
1.23035e-06
-1.48006e-05
1.32089e-06
-1.54266e-05
1.42111e-06
-1.61044e-05
1.53255e-06
-1.6841e-05
1.65734e-06
-1.76448e-05
1.79826e-06
-1.85265e-05
1.95902e-06
-1.94997e-05
2.14448e-06
-2.05815e-05
2.36075e-06
-2.17929e-05
2.61481e-06
-2.31575e-05
2.91229e-06
-2.46977e-05
3.25406e-06
-2.6427e-05
3.62942e-06
-2.83384e-05
4.00937e-06
-3.03935e-05
4.34249e-06
-3.2516e-05
4.55918e-06
-3.45959e-05
4.58429e-06
-3.65037e-05
4.35758e-06
-3.81121e-05
3.85137e-06
-3.9316e-05
3.08128e-06
-4.00485e-05
2.10305e-06
-4.02866e-05
9.99264e-07
-4.00254e-05
-1.74261e-07
-3.93451e-05
-1.27092e-06
-3.83394e-05
-2.23803e-06
-3.71318e-05
-2.99837e-06
-3.58282e-05
-3.5369e-06
-3.45106e-05
-3.86358e-06
-3.32401e-05
-3.99896e-06
-3.20635e-05
-3.96548e-06
-3.10195e-05
-3.78179e-06
-3.01441e-05
-3.46107e-06
-2.9474e-05
-3.01233e-06
-2.90512e-05
-2.44072e-06
-2.89261e-05
-1.74908e-06
-2.91669e-05
-9.34071e-07
-2.98911e-05
4.04653e-08
-3.11453e-05
1.12164e-06
-3.28232e-05
2.17424e-06
-3.4821e-05
3.13771e-06
-3.70898e-05
3.9971e-06
-3.95997e-05
4.72987e-06
-4.23203e-05
5.32038e-06
-4.52096e-05
5.76419e-06
-4.82126e-05
6.06824e-06
-5.12628e-05
6.24607e-06
-5.42896e-05
6.31292e-06
-5.72258e-05
6.28139e-06
-6.00139e-05
6.16031e-06
-6.26093e-05
5.95476e-06
-6.49814e-05
5.66916e-06
-6.71124e-05
5.30873e-06
-6.89954e-05
4.88243e-06
-7.06327e-05
4.40426e-06
-7.20329e-05
3.89239e-06
-7.321e-05
3.36768e-06
-7.41825e-05
2.85132e-06
-7.49719e-05
2.3627e-06
-7.56026e-05
1.91873e-06
-7.61015e-05
1.5332e-06
-7.64964e-05
1.21549e-06
-7.68149e-05
9.70898e-07
-7.70837e-05
8.01523e-07
-7.73276e-05
7.06627e-07
-7.75694e-05
6.83992e-07
-7.78295e-05
7.29901e-07
-7.8126e-05
8.3972e-07
-7.84741e-05
1.00827e-06
-7.88867e-05
1.22948e-06
-7.93737e-05
1.4968e-06
-7.99428e-05
1.80291e-06
-8.05986e-05
2.14005e-06
-8.13433e-05
2.50016e-06
-8.21758e-05
2.87502e-06
-8.30928e-05
3.25616e-06
-8.40881e-05
3.63519e-06
-8.51538e-05
4.00427e-06
-8.62795e-05
4.35588e-06
-8.7454e-05
4.68329e-06
-8.86642e-05
4.98034e-06
-8.98968e-05
5.24217e-06
-9.11377e-05
5.46463e-06
-9.23725e-05
5.64486e-06
-9.35873e-05
5.78095e-06
-9.47685e-05
5.87224e-06
-9.59035e-05
5.9188e-06
-9.69802e-05
5.92121e-06
-9.79877e-05
5.88064e-06
-9.89162e-05
5.79846e-06
-9.97564e-05
5.67541e-06
-0.0001005
5.51165e-06
-0.000101137
5.30607e-06
-0.00010166
5.05608e-06
-0.000102059
4.75687e-06
-0.000102322
4.40146e-06
-0.000102439
3.98039e-06
-0.000102396
3.48018e-06
-0.000102176
2.87995e-06
-0.000101754
2.1446e-06
-0.000101087
1.21468e-06
-0.000100089
-1.32498e-08
-9.87839e-05
-1.51948e-06
-9.70225e-05
-3.41333e-06
-9.47066e-05
-5.78742e-06
-9.16195e-05
-8.7775e-06
-8.75081e-05
-1.26388e-05
-8.21847e-05
-1.74408e-05
-7.44774e-05
-2.28584e-05
-6.57177e-05
-2.94158e-05
-5.51804e-05
-3.62757e-05
-4.29836e-05
-4.24627e-05
-2.95764e-05
-4.59589e-05
-1.59707e-05
-4.31596e-05
-3.30705e-06
-2.83836e-05
5.37399e-06
-4.91774e-06
2.71161e-05
-7.84383e-06
9.13701e-06
-8.96285e-06
2.39323e-08
-9.17473e-06
-2.58168e-06
-9.03111e-06
-2.87956e-06
-8.75855e-06
-2.55777e-06
-8.44993e-06
-2.14002e-06
-8.14451e-06
-1.76331e-06
-7.85896e-06
-1.45236e-06
-7.59965e-06
-1.20074e-06
-7.36803e-06
-9.97809e-07
-7.16322e-06
-8.33281e-07
-6.98332e-06
-6.98801e-07
-6.82607e-06
-5.87856e-07
-6.68916e-06
-4.95464e-07
-6.57043e-06
-4.17788e-07
-6.46789e-06
-3.51884e-07
-6.37981e-06
-2.95475e-07
-6.30465e-06
-2.46776e-07
-6.24106e-06
-2.04392e-07
-6.18788e-06
-1.67215e-07
-6.14408e-06
-1.34345e-07
-6.10879e-06
-1.05065e-07
-6.0812e-06
-7.87835e-08
-6.06064e-06
-5.50331e-08
-6.04674e-06
-3.34638e-08
-6.04001e-06
-1.37928e-08
-6.03836e-06
3.60462e-09
-6.04151e-06
2.16989e-08
-6.0491e-06
3.69296e-08
-6.0612e-06
5.12296e-08
-6.07766e-06
6.47737e-08
-6.0983e-06
7.76609e-08
-6.12299e-06
8.99871e-08
-6.15157e-06
1.01853e-07
-6.18394e-06
1.13332e-07
-6.22001e-06
1.24525e-07
-6.25969e-06
1.35488e-07
-6.30294e-06
1.46301e-07
-6.34973e-06
1.57013e-07
-6.40003e-06
1.67685e-07
-6.45385e-06
1.78376e-07
-6.5112e-06
1.89117e-07
-6.5721e-06
1.99974e-07
-6.6366e-06
2.10977e-07
-6.70476e-06
2.2219e-07
-6.77665e-06
2.3364e-07
-6.85235e-06
2.45373e-07
-6.93196e-06
2.57434e-07
-7.01559e-06
2.69877e-07
-7.10337e-06
2.82738e-07
-7.19544e-06
2.96068e-07
-7.29196e-06
3.0992e-07
-7.39311e-06
3.24344e-07
-7.49908e-06
3.39395e-07
-7.61009e-06
3.55134e-07
-7.72636e-06
3.71611e-07
-7.84816e-06
3.88916e-07
-7.97576e-06
4.07087e-07
-8.10945e-06
4.26229e-07
-8.24959e-06
4.46417e-07
-8.3965e-06
4.67725e-07
-8.5506e-06
4.90271e-07
-8.7123e-06
5.14153e-07
-8.88206e-06
5.3948e-07
-9.06039e-06
5.66391e-07
-9.24784e-06
5.95015e-07
-9.445e-06
6.25506e-07
-9.65253e-06
6.58024e-07
-9.87114e-06
6.92741e-07
-1.01016e-05
7.29903e-07
-1.03448e-05
7.69703e-07
-1.06017e-05
8.12369e-07
-1.08733e-05
8.58198e-07
-1.11608e-05
9.07473e-07
-1.14654e-05
9.60608e-07
-1.17885e-05
1.0179e-06
-1.21317e-05
1.07985e-06
-1.24967e-05
1.14688e-06
-1.28855e-05
1.21964e-06
-1.33004e-05
1.2987e-06
-1.37436e-05
1.38481e-06
-1.42181e-05
1.47885e-06
-1.4727e-05
1.58178e-06
-1.5274e-05
1.6948e-06
-1.58633e-05
1.8194e-06
-1.65e-05
1.95734e-06
-1.719e-05
2.1108e-06
-1.79404e-05
2.28269e-06
-1.87601e-05
2.47673e-06
-1.966e-05
2.6979e-06
-2.06541e-05
2.95283e-06
-2.17599e-05
3.24987e-06
-2.2999e-05
3.59939e-06
-2.43963e-05
4.0114e-06
-2.59763e-05
4.49122e-06
-2.77569e-05
5.03266e-06
-2.97379e-05
5.60677e-06
-3.18895e-05
6.15493e-06
-3.41439e-05
6.58756e-06
-3.63969e-05
6.79856e-06
-3.85193e-05
6.68837e-06
-4.03776e-05
6.19309e-06
-4.18575e-05
5.3046e-06
-4.2883e-05
4.07762e-06
-4.34298e-05
2.61948e-06
-4.3525e-05
1.06507e-06
-4.32531e-05
-4.73152e-07
-4.27011e-05
-1.84564e-06
-4.20039e-05
-2.95351e-06
-4.12587e-05
-3.75741e-06
-4.05374e-05
-4.2683e-06
-3.98911e-05
-4.51699e-06
-3.93579e-05
-4.53688e-06
-3.89709e-05
-4.35548e-06
-3.87643e-05
-3.98996e-06
-3.87773e-05
-3.44853e-06
-3.90567e-05
-2.7325e-06
-3.96561e-05
-1.84032e-06
-4.06402e-05
-7.63181e-07
-4.20549e-05
4.82809e-07
-4.37922e-05
1.78034e-06
-4.57031e-05
3.03526e-06
-4.77653e-05
4.23874e-06
-5.00005e-05
5.37455e-06
-5.24034e-05
6.40083e-06
-5.49514e-05
7.27769e-06
-5.76094e-05
7.97741e-06
-6.03323e-05
8.48599e-06
-6.30677e-05
8.80253e-06
-6.57579e-05
8.93559e-06
-6.83447e-05
8.89943e-06
-7.07739e-05
8.71078e-06
-7.29997e-05
8.38693e-06
-7.49886e-05
7.94493e-06
-7.67202e-05
7.40228e-06
-7.81876e-05
6.77784e-06
-7.93964e-05
6.09287e-06
-8.03617e-05
5.37127e-06
-8.11068e-05
4.63894e-06
-8.16602e-05
3.92219e-06
-8.20529e-05
3.24491e-06
-8.23165e-05
2.62682e-06
-8.2482e-05
2.08437e-06
-8.25789e-05
1.6299e-06
-8.26343e-05
1.27042e-06
-8.26721e-05
1.0079e-06
-8.27118e-05
8.40168e-07
-8.27688e-05
7.62434e-07
-8.28548e-05
7.68673e-07
-8.29788e-05
8.5228e-07
-8.31468e-05
1.00612e-06
-8.33634e-05
1.22325e-06
-8.36315e-05
1.49598e-06
-8.39522e-05
1.81597e-06
-8.43252e-05
2.17428e-06
-8.47483e-05
2.56166e-06
-8.5218e-05
2.9684e-06
-8.5729e-05
3.38475e-06
-8.62752e-05
3.80112e-06
-8.68489e-05
4.20782e-06
-8.74416e-05
4.59584e-06
-8.80436e-05
4.957e-06
-8.86451e-05
5.28395e-06
-8.92361e-05
5.57071e-06
-8.98066e-05
5.8121e-06
-9.03468e-05
6.0044e-06
-9.08478e-05
6.14541e-06
-9.13014e-05
6.23425e-06
-9.17005e-05
6.2712e-06
-9.20393e-05
6.25752e-06
-9.23134e-05
6.19519e-06
-9.25193e-05
6.08643e-06
-9.26546e-05
5.93387e-06
-9.27186e-05
5.73946e-06
-9.27111e-05
5.50413e-06
-9.26322e-05
5.22726e-06
-9.24825e-05
4.90648e-06
-9.22623e-05
4.53681e-06
-9.19721e-05
4.11127e-06
-9.16117e-05
3.61998e-06
-9.11805e-05
3.04893e-06
-9.06758e-05
2.37504e-06
-9.00869e-05
1.55545e-06
-8.93887e-05
5.16127e-07
-8.86195e-05
-7.82896e-07
-8.7715e-05
-2.42456e-06
-8.65698e-05
-4.55913e-06
-8.5037e-05
-7.32093e-06
-8.2933e-05
-1.08822e-05
-8.00891e-05
-1.54831e-05
-7.63415e-05
-2.11887e-05
-7.1178e-05
-2.80221e-05
-6.45104e-05
-3.60833e-05
-5.60882e-05
-4.46974e-05
-4.58276e-05
-5.27227e-05
-3.38833e-05
-5.79025e-05
-2.07797e-05
-5.62626e-05
-8.09608e-06
-4.10669e-05
-2.72263e-06
-4.27106e-06
3.13894e-05
-7.03617e-06
1.19026e-05
-8.30329e-06
1.29096e-06
-8.72897e-06
-2.15626e-06
-8.78867e-06
-2.82014e-06
-8.69122e-06
-2.65551e-06
-8.52742e-06
-2.30411e-06
-8.33894e-06
-1.95209e-06
-8.14644e-06
-1.64513e-06
-7.96054e-06
-1.3869e-06
-7.78662e-06
-1.17201e-06
-7.6271e-06
-9.93075e-07
-7.48278e-06
-8.43398e-07
-7.35351e-06
-7.17403e-07
-7.23864e-06
-6.10602e-07
-7.1373e-06
-5.19411e-07
-7.04849e-06
-4.40965e-07
-6.97125e-06
-3.72994e-07
-6.90462e-06
-3.13676e-07
-6.84775e-06
-2.61543e-07
-6.79982e-06
-2.15416e-07
-6.76011e-06
-1.74331e-07
-6.72795e-06
-1.37501e-07
-6.70274e-06
-1.04264e-07
-6.68397e-06
-7.40812e-08
-6.67127e-06
-4.64402e-08
-6.66454e-06
-2.07932e-08
-6.66579e-06
4.57851e-09
-6.66899e-06
2.46168e-08
-6.67655e-06
4.42222e-08
-6.68847e-06
6.28733e-08
-6.70464e-06
8.06613e-08
-6.7249e-06
9.76447e-08
-6.74914e-06
1.13955e-07
-6.77725e-06
1.29686e-07
-6.80915e-06
1.4496e-07
-6.84476e-06
1.5986e-07
-6.88404e-06
1.74492e-07
-6.92695e-06
1.88931e-07
-6.97346e-06
2.03248e-07
-7.02357e-06
2.17525e-07
-7.07729e-06
2.31817e-07
-7.13464e-06
2.46194e-07
-7.19566e-06
2.60717e-07
-7.2604e-06
2.75434e-07
-7.3289e-06
2.90423e-07
-7.40127e-06
3.05726e-07
-7.47756e-06
3.21394e-07
-7.55792e-06
3.37513e-07
-7.64243e-06
3.54115e-07
-7.73125e-06
3.71281e-07
-7.82452e-06
3.89061e-07
-7.9224e-06
4.07525e-07
-8.02509e-06
4.26752e-07
-8.13277e-06
4.46799e-07
-8.24567e-06
4.67758e-07
-8.36403e-06
4.89704e-07
-8.48812e-06
5.12727e-07
-8.61824e-06
5.36927e-07
-8.75468e-06
5.62391e-07
-8.89779e-06
5.89249e-07
-9.04795e-06
6.17613e-07
-9.20556e-06
6.47602e-07
-9.37107e-06
6.7938e-07
-9.54495e-06
7.13084e-07
-9.72772e-06
7.48886e-07
-9.91997e-06
7.86982e-07
-1.01223e-05
8.27556e-07
-1.03354e-05
8.70866e-07
-1.05601e-05
9.17138e-07
-1.07971e-05
9.66634e-07
-1.10474e-05
1.01969e-06
-1.13119e-05
1.07661e-06
-1.15917e-05
1.13778e-06
-1.18882e-05
1.20366e-06
-1.22026e-05
1.27467e-06
-1.25363e-05
1.35139e-06
-1.28912e-05
1.43442e-06
-1.3269e-05
1.52442e-06
-1.36718e-05
1.62219e-06
-1.4102e-05
1.72862e-06
-1.45623e-05
1.84481e-06
-1.50557e-05
1.97193e-06
-1.55857e-05
2.11149e-06
-1.61563e-05
2.26519e-06
-1.67724e-05
2.43516e-06
-1.74393e-05
2.62402e-06
-1.81639e-05
2.83508e-06
-1.89541e-05
3.07256e-06
-1.98198e-05
3.34215e-06
-2.07734e-05
3.65124e-06
-2.18304e-05
4.00946e-06
-2.30096e-05
4.4287e-06
-2.43336e-05
4.92282e-06
-2.58262e-05
5.50297e-06
-2.75082e-05
6.1715e-06
-2.93896e-05
6.91087e-06
-3.14588e-05
7.67058e-06
-3.36734e-05
8.36063e-06
-3.59556e-05
8.85631e-06
-3.81971e-05
9.02145e-06
-4.02747e-05
8.74201e-06
-4.20716e-05
7.96125e-06
-4.34994e-05
6.7005e-06
-4.45163e-05
5.06114e-06
-4.5135e-05
3.20596e-06
-4.54205e-05
1.32133e-06
-4.54802e-05
-4.37662e-07
-4.54137e-05
-1.93092e-06
-4.53174e-05
-3.06342e-06
-4.52584e-05
-3.82593e-06
-4.52821e-05
-4.25081e-06
-4.54219e-05
-4.38093e-06
-4.5706e-05
-4.25492e-06
-4.61623e-05
-3.90009e-06
-4.68204e-05
-3.33204e-06
-4.77086e-05
-2.55962e-06
-4.88501e-05
-1.58988e-06
-5.02572e-05
-4.31562e-07
-5.18848e-05
8.66591e-07
-5.36086e-05
2.20899e-06
-5.53807e-05
3.55499e-06
-5.72502e-05
4.90715e-06
-5.92345e-05
6.22514e-06
-6.13159e-05
7.45772e-06
-6.34675e-05
8.55381e-06
-6.56581e-05
9.46949e-06
-6.78522e-05
1.01726e-05
-7.00094e-05
1.06445e-05
-7.20856e-05
1.08804e-05
-7.40349e-05
1.08871e-05
-7.58131e-05
1.06803e-05
-7.7381e-05
1.02818e-05
-7.8708e-05
9.71715e-06
-7.97745e-05
9.01489e-06
-8.05741e-05
8.20532e-06
-8.11135e-05
7.32056e-06
-8.14121e-05
6.39456e-06
-8.14998e-05
5.4617e-06
-8.14136e-05
4.55498e-06
-8.11956e-05
3.70579e-06
-8.08892e-05
2.93966e-06
-8.05337e-05
2.27196e-06
-8.01646e-05
1.71528e-06
-7.98129e-05
1.27773e-06
-7.95033e-05
9.59916e-07
-7.92531e-05
7.56295e-07
-7.90718e-05
6.57255e-07
-7.89617e-05
6.50432e-07
-7.89201e-05
7.24987e-07
-7.89421e-05
8.7206e-07
-7.90215e-05
1.08315e-06
-7.91507e-05
1.35015e-06
-7.93222e-05
1.66526e-06
-7.95285e-05
2.01999e-06
-7.97615e-05
2.40527e-06
-8.00134e-05
2.81162e-06
-8.02764e-05
3.2295e-06
-8.05422e-05
3.64885e-06
-8.08028e-05
4.06007e-06
-8.10499e-05
4.45348e-06
-8.12757e-05
4.82037e-06
-8.14725e-05
5.15267e-06
-8.1633e-05
5.44354e-06
-8.17505e-05
5.68746e-06
-8.18193e-05
5.88022e-06
-8.18345e-05
6.01905e-06
-8.17921e-05
6.10271e-06
-8.16896e-05
6.13143e-06
-8.15255e-05
6.10695e-06
-8.12998e-05
6.0318e-06
-8.10137e-05
5.90915e-06
-8.067e-05
5.74284e-06
-8.02724e-05
5.53642e-06
-7.98258e-05
5.29294e-06
-7.93357e-05
5.01427e-06
-7.88087e-05
4.70045e-06
-7.82512e-05
4.34923e-06
-7.76705e-05
3.95634e-06
-7.70744e-05
3.51522e-06
-7.64714e-05
3.01701e-06
-7.58705e-05
2.44803e-06
-7.52812e-05
1.78572e-06
-7.47125e-05
9.86432e-07
-7.41709e-05
-2.60394e-08
-7.36833e-05
-1.2709e-06
-7.32129e-05
-2.89547e-06
-7.27095e-05
-5.06321e-06
-7.20818e-05
-7.94927e-06
-7.11873e-05
-1.17774e-05
-6.98543e-05
-1.68166e-05
-6.7821e-05
-2.32225e-05
-6.47307e-05
-3.11127e-05
-6.03228e-05
-4.04913e-05
-5.41975e-05
-5.08226e-05
-4.60436e-05
-6.08762e-05
-3.57177e-05
-6.82279e-05
-2.34895e-05
-6.84903e-05
-1.05745e-05
-5.39815e-05
-1.32976e-05
-3.7921e-06
3.5184e-05
-6.4282e-06
1.45394e-05
-7.71787e-06
2.58051e-06
-8.25719e-06
-1.61716e-06
-8.43682e-06
-2.64076e-06
-8.45212e-06
-2.64049e-06
-8.38901e-06
-2.36749e-06
-8.28767e-06
-2.05373e-06
-8.16878e-06
-1.76429e-06
-8.04413e-06
-1.51184e-06
-7.92066e-06
-1.29576e-06
-7.80251e-06
-1.1115e-06
-7.69206e-06
-9.54125e-07
-7.59052e-06
-8.19218e-07
-7.49839e-06
-7.03008e-07
-7.41571e-06
-6.02366e-07
-7.34225e-06
-5.14692e-07
-7.27766e-06
-4.37865e-07
-7.22147e-06
-3.70135e-07
-7.17322e-06
-3.10072e-07
-7.13242e-06
-2.56494e-07
-7.09859e-06
-2.08435e-07
-7.07129e-06
-1.65074e-07
-7.05007e-06
-1.25752e-07
-7.03456e-06
-8.98737e-08
-7.02446e-06
-5.68137e-08
-7.02018e-06
-2.53445e-08
-7.02248e-06
6.60412e-09
-7.02762e-06
2.94782e-08
-7.03634e-06
5.26654e-08
-7.04914e-06
7.5398e-08
-7.06595e-06
9.71981e-08
-7.08667e-06
1.18092e-07
-7.1112e-06
1.38209e-07
-7.13946e-06
1.57673e-07
-7.17139e-06
1.76617e-07
-7.20695e-06
1.95143e-07
-7.24611e-06
2.13375e-07
-7.28884e-06
2.31386e-07
-7.33515e-06
2.4928e-07
-7.38503e-06
2.67131e-07
-7.43851e-06
2.85024e-07
-7.49562e-06
3.03029e-07
-7.5564e-06
3.21219e-07
-7.62092e-06
3.39675e-07
-7.68922e-06
3.58454e-07
-7.76141e-06
3.7764e-07
-7.83759e-06
3.97291e-07
-7.91784e-06
4.17492e-07
-8.00231e-06
4.38302e-07
-8.09111e-06
4.59814e-07
-8.18443e-06
4.82098e-07
-8.28242e-06
5.05238e-07
-8.38526e-06
5.29318e-07
-8.49317e-06
5.54437e-07
-8.60637e-06
5.8068e-07
-8.72511e-06
6.08168e-07
-8.84966e-06
6.36993e-07
-8.9803e-06
6.67298e-07
-9.11737e-06
6.99178e-07
-9.26119e-06
7.32795e-07
-9.41216e-06
7.68302e-07
-9.57068e-06
8.05847e-07
-9.7372e-06
8.4562e-07
-9.91221e-06
8.87819e-07
-1.00962e-05
9.3264e-07
-1.02899e-05
9.80355e-07
-1.04938e-05
1.03118e-06
-1.07086e-05
1.08539e-06
-1.09351e-05
1.14335e-06
-1.11741e-05
1.20541e-06
-1.14266e-05
1.27191e-06
-1.16936e-05
1.3433e-06
-1.19762e-05
1.42007e-06
-1.22756e-05
1.50278e-06
-1.25932e-05
1.592e-06
-1.29305e-05
1.68846e-06
-1.32893e-05
1.79291e-06
-1.36715e-05
1.90628e-06
-1.40791e-05
2.02953e-06
-1.45147e-05
2.16393e-06
-1.49809e-05
2.3108e-06
-1.54811e-05
2.47178e-06
-1.60186e-05
2.64877e-06
-1.65978e-05
2.84409e-06
-1.72235e-05
3.06058e-06
-1.79015e-05
3.30172e-06
-1.86386e-05
3.57185e-06
-1.9443e-05
3.8767e-06
-2.03248e-05
4.22366e-06
-2.12962e-05
4.62239e-06
-2.23724e-05
5.08527e-06
-2.35711e-05
5.62692e-06
-2.49124e-05
6.26341e-06
-2.64166e-05
7.00594e-06
-2.80997e-05
7.85231e-06
-2.99664e-05
8.77347e-06
-3.20022e-05
9.69931e-06
-3.41656e-05
1.05128e-05
-3.63867e-05
1.10609e-05
-3.85724e-05
1.11848e-05
-4.06201e-05
1.07618e-05
-4.2437e-05
9.74575e-06
-4.39603e-05
8.18902e-06
-4.51711e-05
6.23727e-06
-4.60972e-05
4.1002e-06
-4.68042e-05
2.0012e-06
-4.73827e-05
1.19884e-07
-4.79141e-05
-1.41455e-06
-4.8453e-05
-2.53463e-06
-4.90491e-05
-3.23611e-06
-4.97353e-05
-3.56824e-06
-5.05355e-05
-3.58255e-06
-5.14691e-05
-3.32189e-06
-5.25513e-05
-2.81776e-06
-5.37904e-05
-2.09226e-06
-5.51837e-05
-1.16507e-06
-5.67129e-05
-5.90999e-08
-5.83111e-05
1.16843e-06
-5.99121e-05
2.46968e-06
-6.15276e-05
3.82681e-06
-6.31964e-05
5.2261e-06
-6.49114e-05
6.62469e-06
-6.66523e-05
7.96839e-06
-6.83925e-05
9.2004e-06
-7.0103e-05
1.02669e-05
-7.17529e-05
1.11221e-05
-7.3309e-05
1.17319e-05
-7.47373e-05
1.20764e-05
-7.60025e-05
1.21497e-05
-7.70702e-05
1.19594e-05
-7.79091e-05
1.15241e-05
-7.84941e-05
1.08719e-05
-7.88089e-05
1.00373e-05
-7.88484e-05
9.05969e-06
-7.86204e-05
7.98234e-06
-7.81458e-05
6.8507e-06
-7.74581e-05
5.71109e-06
-7.6602e-05
4.60924e-06
-7.56292e-05
3.58508e-06
-7.45958e-05
2.67456e-06
-7.35641e-05
1.90924e-06
-7.25839e-05
1.29225e-06
-7.1694e-05
8.25167e-07
-7.09252e-05
5.08118e-07
-7.02956e-05
3.28755e-07
-6.98096e-05
2.68465e-07
-6.94627e-05
3.07871e-07
-6.92407e-05
4.25846e-07
-6.91275e-05
6.09006e-07
-6.91049e-05
8.46658e-07
-6.91534e-05
1.12865e-06
-6.9254e-05
1.44785e-06
-6.93895e-05
1.79797e-06
-6.95445e-05
2.17217e-06
-6.97047e-05
2.56289e-06
-6.98574e-05
2.96198e-06
-6.99915e-05
3.3613e-06
-7.00965e-05
3.75193e-06
-7.01636e-05
4.12529e-06
-7.01848e-05
4.47299e-06
-7.01533e-05
4.78739e-06
-7.00632e-05
5.06135e-06
-6.99098e-05
5.28909e-06
-6.96893e-05
5.46616e-06
-6.93995e-05
5.58969e-06
-6.90391e-05
5.65816e-06
-6.86083e-05
5.67147e-06
-6.81083e-05
5.63129e-06
-6.75419e-05
5.54051e-06
-6.69132e-05
5.4031e-06
-6.62272e-05
5.22332e-06
-6.54906e-05
5.00633e-06
-6.47107e-05