/*--------------------------------*- C++ -*----------------------------------*\
  =========                 |
  \\      /  F ield         | OpenFOAM: The Open Source CFD Toolbox
   \\    /   O peration     | Website:  https://openfoam.org
    \\  /    A nd           | Version:  12
     \\/     M anipulation  |
\*---------------------------------------------------------------------------*/
FoamFile
{
    format      ascii;
    class       volScalarField;
    location    "10.03";
    object      T;
}
// * * * * * * * * * * * * * * * * * * * * * * * * * * * * * * * * * * * * * //

dimensions      [0 0 0 1 0 0 0];

internalField   nonuniform List<scalar> 
40000
(
298.487
294.301
293.407
293.195
293.139
293.123
293.118
293.116
293.115
293.115
293.115
293.115
293.115
293.115
293.115
293.115
293.115
293.115
293.115
293.115
293.115
293.115
293.115
293.115
293.115
293.115
293.115
293.115
293.115
293.115
293.115
293.115
293.115
293.115
293.115
293.115
293.115
293.115
293.115
293.115
293.115
293.115
293.115
293.115
293.115
293.115
293.115
293.115
293.115
293.115
293.115
293.115
293.115
293.115
293.115
293.115
293.115
293.115
293.115
293.115
293.115
293.115
293.115
293.115
293.115
293.115
293.115
293.115
293.115
293.115
293.115
293.115
293.115
293.115
293.115
293.115
293.115
293.115
293.115
293.115
293.115
293.115
293.115
293.115
293.115
293.115
293.115
293.115
293.115
293.115
293.115
293.115
293.115
293.115
293.115
293.115
293.115
293.115
293.114
293.113
293.11
293.104
293.095
293.08
293.058
293.026
292.986
292.934
292.871
292.794
292.704
292.606
292.502
292.397
292.293
292.196
292.104
292.02
291.944
291.876
291.816
291.763
291.716
291.674
291.633
291.593
291.554
291.513
291.47
291.424
291.372
291.316
291.255
291.189
291.119
291.044
290.965
290.885
290.804
290.724
290.647
290.577
290.516
290.465
290.426
290.397
290.377
290.363
290.354
290.348
290.344
290.34
290.337
290.333
290.328
290.324
290.319
290.314
290.308
290.302
290.296
290.289
290.281
290.273
290.265
290.256
290.248
290.239
290.23
290.22
290.211
290.202
290.192
290.183
290.173
290.164
290.154
290.144
290.134
290.125
290.115
290.105
290.095
290.084
290.074
290.063
290.052
290.041
290.029
290.013
289.991
289.964
289.922
289.873
289.805
289.717
289.601
289.443
289.156
288.78
298.761
294.314
293.384
293.181
293.133
293.12
293.117
293.116
293.115
293.115
293.115
293.115
293.115
293.115
293.115
293.115
293.115
293.115
293.115
293.115
293.115
293.115
293.115
293.115
293.115
293.115
293.115
293.115
293.115
293.115
293.115
293.115
293.115
293.115
293.115
293.115
293.115
293.115
293.115
293.115
293.115
293.115
293.115
293.115
293.115
293.115
293.115
293.115
293.115
293.115
293.115
293.115
293.115
293.115
293.115
293.115
293.115
293.115
293.115
293.115
293.115
293.115
293.115
293.115
293.115
293.115
293.115
293.115
293.115
293.115
293.115
293.115
293.115
293.115
293.115
293.115
293.115
293.115
293.115
293.115
293.115
293.115
293.115
293.115
293.115
293.115
293.115
293.115
293.115
293.115
293.115
293.115
293.115
293.115
293.115
293.115
293.114
293.111
293.107
293.097
293.081
293.053
293.011
292.951
292.874
292.778
292.665
292.537
292.397
292.247
292.099
291.959
291.834
291.724
291.63
291.551
291.486
291.434
291.392
291.36
291.336
291.319
291.307
291.296
291.284
291.268
291.246
291.215
291.171
291.116
291.05
290.979
290.907
290.839
290.774
290.715
290.662
290.615
290.574
290.539
290.511
290.49
290.474
290.462
290.453
290.448
290.443
290.439
290.435
290.432
290.428
290.425
290.421
290.417
290.413
290.409
290.405
290.401
290.397
290.393
290.389
290.386
290.383
290.381
290.379
290.377
290.375
290.374
290.374
290.374
290.374
290.375
290.377
290.379
290.381
290.383
290.387
290.39
290.394
290.398
290.402
290.406
290.41
290.414
290.418
290.422
290.424
290.423
290.414
290.396
290.367
290.324
290.261
290.179
290.066
289.915
289.718
289.462
289.13
288.675
299.08
294.421
293.403
293.182
293.132
293.12
293.116
293.116
293.115
293.115
293.115
293.115
293.115
293.115
293.115
293.115
293.115
293.115
293.115
293.115
293.115
293.115
293.115
293.115
293.115
293.115
293.115
293.115
293.115
293.115
293.115
293.115
293.115
293.115
293.115
293.115
293.115
293.115
293.115
293.115
293.115
293.115
293.115
293.115
293.115
293.115
293.115
293.115
293.115
293.115
293.115
293.115
293.115
293.115
293.115
293.115
293.115
293.115
293.115
293.115
293.115
293.115
293.115
293.115
293.115
293.115
293.115
293.115
293.115
293.115
293.115
293.115
293.115
293.115
293.115
293.115
293.115
293.115
293.115
293.115
293.115
293.115
293.115
293.115
293.115
293.115
293.115
293.115
293.115
293.115
293.115
293.115
293.115
293.115
293.114
293.112
293.108
293.099
293.083
293.054
293.006
292.935
292.837
292.711
292.558
292.385
292.197
292.003
291.81
291.634
291.481
291.353
291.249
291.168
291.105
291.057
291.023
290.999
290.985
290.978
290.977
290.981
290.984
290.989
290.992
290.988
290.973
290.946
290.908
290.863
290.815
290.77
290.729
290.695
290.668
290.647
290.632
290.621
290.616
290.613
290.613
290.615
290.617
290.619
290.62
290.62
290.62
290.619
290.616
290.614
290.611
290.608
290.604
290.6
290.598
290.595
290.593
290.592
290.591
290.592
290.594
290.596
290.599
290.604
290.61
290.617
290.625
290.634
290.644
290.655
290.667
290.68
290.694
290.709
290.724
290.74
290.756
290.773
290.79
290.806
290.823
290.839
290.853
290.867
290.878
290.887
290.891
290.884
290.869
290.841
290.8
290.739
290.654
290.538
290.381
290.173
289.904
289.563
289.144
288.594
299.373
294.548
293.439
293.191
293.134
293.12
293.116
293.116
293.115
293.115
293.115
293.115
293.115
293.115
293.115
293.115
293.115
293.115
293.115
293.115
293.115
293.115
293.115
293.115
293.115
293.115
293.115
293.115
293.115
293.115
293.115
293.115
293.115
293.115
293.115
293.115
293.115
293.115
293.115
293.115
293.115
293.115
293.115
293.115
293.115
293.115
293.115
293.115
293.115
293.115
293.115
293.115
293.115
293.115
293.115
293.115
293.115
293.115
293.115
293.115
293.115
293.115
293.115
293.115
293.115
293.115
293.115
293.115
293.115
293.115
293.115
293.115
293.115
293.115
293.115
293.115
293.115
293.115
293.115
293.115
293.115
293.115
293.115
293.115
293.115
293.115
293.115
293.115
293.115
293.115
293.115
293.115
293.115
293.114
293.112
293.107
293.098
293.079
293.045
292.989
292.905
292.786
292.633
292.446
292.235
292.01
291.784
291.569
291.38
291.223
291.099
291.005
290.935
290.886
290.851
290.827
290.813
290.806
290.805
290.808
290.815
290.824
290.836
290.846
290.85
290.848
290.838
290.822
290.802
290.782
290.765
290.753
290.747
290.746
290.751
290.76
290.772
290.786
290.801
290.816
290.83
290.843
290.854
290.862
290.868
290.872
290.873
290.873
290.872
290.869
290.867
290.863
290.86
290.857
290.856
290.855
290.855
290.856
290.859
290.863
290.869
290.877
290.886
290.897
290.91
290.925
290.942
290.96
290.979
291
291.022
291.045
291.069
291.093
291.118
291.144
291.169
291.194
291.219
291.243
291.266
291.287
291.306
291.322
291.334
291.341
291.339
291.328
291.307
291.272
291.22
291.145
291.041
290.898
290.707
290.455
290.131
289.723
289.218
288.585
299.641
294.676
293.483
293.203
293.137
293.121
293.117
293.116
293.115
293.115
293.115
293.115
293.115
293.115
293.115
293.115
293.115
293.115
293.115
293.115
293.115
293.115
293.115
293.115
293.115
293.115
293.115
293.115
293.115
293.115
293.115
293.115
293.115
293.115
293.115
293.115
293.115
293.115
293.115
293.115
293.115
293.115
293.115
293.115
293.115
293.115
293.115
293.115
293.115
293.115
293.115
293.115
293.115
293.115
293.115
293.115
293.115
293.115
293.115
293.115
293.115
293.115
293.115
293.115
293.115
293.115
293.115
293.115
293.115
293.115
293.115
293.115
293.115
293.115
293.115
293.115
293.115
293.115
293.115
293.115
293.115
293.115
293.115
293.115
293.115
293.115
293.115
293.115
293.115
293.115
293.115
293.115
293.114
293.113
293.109
293.101
293.085
293.055
293.004
292.923
292.804
292.646
292.449
292.222
291.978
291.731
291.499
291.297
291.134
291.011
290.921
290.858
290.815
290.788
290.771
290.761
290.757
290.757
290.761
290.768
290.778
290.789
290.8
290.809
290.815
290.819
290.821
290.822
290.825
290.831
290.842
290.859
290.88
290.906
290.934
290.964
290.996
291.026
291.056
291.083
291.106
291.126
291.142
291.154
291.163
291.168
291.17
291.17
291.168
291.164
291.161
291.156
291.152
291.149
291.148
291.147
291.148
291.152
291.157
291.164
291.174
291.185
291.2
291.216
291.235
291.255
291.278
291.302
291.328
291.355
291.384
291.414
291.444
291.475
291.507
291.537
291.568
291.598
291.627
291.654
291.679
291.702
291.722
291.738
291.749
291.752
291.748
291.735
291.711
291.672
291.613
291.528
291.41
291.247
291.03
290.745
290.378
289.917
289.352
288.671
299.881
294.797
293.526
293.215
293.14
293.122
293.117
293.116
293.115
293.115
293.115
293.115
293.115
293.115
293.115
293.115
293.115
293.115
293.115
293.115
293.115
293.115
293.115
293.115
293.115
293.115
293.115
293.115
293.115
293.115
293.115
293.115
293.115
293.115
293.115
293.115
293.115
293.115
293.115
293.115
293.115
293.115
293.115
293.115
293.115
293.115
293.115
293.115
293.115
293.115
293.115
293.115
293.115
293.115
293.115
293.115
293.115
293.115
293.115
293.115
293.115
293.115
293.115
293.115
293.115
293.115
293.115
293.115
293.115
293.115
293.115
293.115
293.115
293.115
293.115
293.115
293.115
293.115
293.115
293.115
293.115
293.115
293.115
293.115
293.115
293.115
293.115
293.115
293.115
293.115
293.115
293.115
293.114
293.112
293.107
293.096
293.075
293.036
292.97
292.869
292.726
292.539
292.315
292.065
291.806
291.558
291.338
291.158
291.023
290.927
290.863
290.823
290.798
290.784
290.777
290.775
290.776
290.781
290.788
290.797
290.808
290.819
290.831
290.844
290.857
290.872
290.888
290.907
290.931
290.96
290.993
291.031
291.074
291.119
291.166
291.213
291.258
291.302
291.342
291.378
291.409
291.434
291.454
291.468
291.476
291.48
291.48
291.477
291.472
291.465
291.459
291.453
291.447
291.442
291.439
291.438
291.439
291.443
291.449
291.459
291.47
291.485
291.501
291.521
291.543
291.567
291.594
291.622
291.652
291.683
291.716
291.749
291.783
291.818
291.852
291.886
291.92
291.952
291.984
292.013
292.04
292.064
292.084
292.1
292.11
292.111
292.107
292.094
292.07
292.031
291.97
291.88
291.753
291.577
291.341
291.029
290.626
290.118
289.494
288.739
300.098
294.913
293.568
293.229
293.144
293.123
293.117
293.116
293.115
293.115
293.115
293.115
293.115
293.115
293.115
293.115
293.115
293.115
293.115
293.115
293.115
293.115
293.115
293.115
293.115
293.115
293.115
293.115
293.115
293.115
293.115
293.115
293.115
293.115
293.115
293.115
293.115
293.115
293.115
293.115
293.115
293.115
293.115
293.115
293.115
293.115
293.115
293.115
293.115
293.115
293.115
293.115
293.115
293.115
293.115
293.115
293.115
293.115
293.115
293.115
293.115
293.115
293.115
293.115
293.115
293.115
293.115
293.115
293.115
293.115
293.115
293.115
293.115
293.115
293.115
293.115
293.115
293.115
293.115
293.115
293.115
293.115
293.115
293.115
293.115
293.115
293.115
293.115
293.115
293.115
293.115
293.115
293.114
293.111
293.105
293.092
293.067
293.023
292.949
292.836
292.678
292.476
292.237
291.977
291.716
291.475
291.269
291.109
290.993
290.917
290.869
290.843
290.829
290.824
290.824
290.828
290.834
290.842
290.852
290.863
290.875
290.89
290.907
290.926
290.949
290.975
291.006
291.041
291.082
291.128
291.178
291.233
291.29
291.35
291.409
291.468
291.524
291.576
291.624
291.667
291.704
291.735
291.758
291.774
291.782
291.783
291.779
291.77
291.76
291.748
291.737
291.727
291.717
291.71
291.704
291.701
291.701
291.704
291.709
291.718
291.73
291.745
291.763
291.784
291.807
291.832
291.86
291.89
291.921
291.954
291.988
292.023
292.058
292.093
292.129
292.164
292.199
292.233
292.265
292.296
292.325
292.351
292.372
292.39
292.401
292.405
292.404
292.396
292.376
292.34
292.282
292.193
292.063
291.88
291.631
291.299
290.865
290.312
289.625
288.784
300.296
295.023
293.609
293.243
293.149
293.124
293.118
293.116
293.115
293.115
293.115
293.115
293.115
293.115
293.115
293.115
293.115
293.115
293.115
293.115
293.115
293.115
293.115
293.115
293.115
293.115
293.115
293.115
293.115
293.115
293.115
293.115
293.115
293.115
293.115
293.115
293.115
293.115
293.115
293.115
293.115
293.115
293.115
293.115
293.115
293.115
293.115
293.115
293.115
293.115
293.115
293.115
293.115
293.115
293.115
293.115
293.115
293.115
293.115
293.115
293.115
293.115
293.115
293.115
293.115
293.115
293.115
293.115
293.115
293.115
293.115
293.115
293.115
293.115
293.115
293.115
293.115
293.115
293.115
293.115
293.115
293.115
293.115
293.115
293.115
293.115
293.115
293.115
293.115
293.115
293.115
293.115
293.114
293.111
293.104
293.092
293.066
293.019
292.943
292.826
292.664
292.456
292.213
291.952
291.694
291.461
291.267
291.119
291.015
290.947
290.908
290.889
290.882
290.883
290.889
290.898
290.908
290.919
290.932
290.946
290.963
290.984
291.007
291.035
291.066
291.103
291.145
291.192
291.244
291.301
291.362
291.425
291.49
291.555
291.618
291.678
291.735
291.786
291.833
291.873
291.908
291.937
291.959
291.976
291.988
291.997
292.001
292
291.995
291.986
291.975
291.963
291.952
291.941
291.933
291.927
291.923
291.923
291.926
291.933
291.943
291.956
291.972
291.991
292.013
292.037
292.064
292.092
292.122
292.153
292.185
292.218
292.252
292.285
292.319
292.353
292.387
292.42
292.452
292.484
292.514
292.543
292.569
292.59
292.605
292.618
292.626
292.626
292.617
292.591
292.542
292.46
292.333
292.15
291.895
291.549
291.091
290.496
289.744
288.815
300.475
295.126
293.649
293.257
293.153
293.125
293.118
293.116
293.115
293.115
293.115
293.115
293.115
293.115
293.115
293.115
293.115
293.115
293.115
293.115
293.115
293.115
293.115
293.115
293.115
293.115
293.115
293.115
293.115
293.115
293.115
293.115
293.115
293.115
293.115
293.115
293.115
293.115
293.115
293.115
293.115
293.115
293.115
293.115
293.115
293.115
293.115
293.115
293.115
293.115
293.115
293.115
293.115
293.115
293.115
293.115
293.115
293.115
293.115
293.115
293.115
293.115
293.115
293.115
293.115
293.115
293.115
293.115
293.115
293.115
293.115
293.115
293.115
293.115
293.115
293.115
293.115
293.115
293.115
293.115
293.115
293.115
293.115
293.115
293.115
293.115
293.115
293.115
293.115
293.115
293.115
293.115
293.114
293.111
293.105
293.093
293.068
293.024
292.95
292.837
292.678
292.475
292.235
291.978
291.726
291.498
291.309
291.165
291.065
291
290.963
290.946
290.942
290.947
290.956
290.968
290.981
290.997
291.015
291.034
291.057
291.083
291.113
291.148
291.187
291.231
291.28
291.333
291.39
291.45
291.512
291.574
291.634
291.691
291.743
291.79
291.831
291.866
291.894
291.921
291.946
291.972
291.999
292.025
292.051
292.075
292.096
292.114
292.128
292.136
292.139
292.137
292.132
292.126
292.119
292.114
292.109
292.107
292.107
292.11
292.116
292.125
292.138
292.153
292.171
292.192
292.214
292.239
292.264
292.292
292.32
292.349
292.379
292.409
292.439
292.469
292.499
292.529
292.559
292.589
292.618
292.646
292.671
292.694
292.717
292.739
292.759
292.776
292.784
292.776
292.744
292.676
292.558
292.381
292.126
291.774
291.296
290.665
289.852
288.838
300.639
295.224
293.688
293.271
293.158
293.127
293.118
293.116
293.116
293.115
293.115
293.115
293.115
293.115
293.115
293.115
293.115
293.115
293.115
293.115
293.115
293.115
293.115
293.115
293.115
293.115
293.115
293.115
293.115
293.115
293.115
293.115
293.115
293.115
293.115
293.115
293.115
293.115
293.115
293.115
293.115
293.115
293.115
293.115
293.115
293.115
293.115
293.115
293.115
293.115
293.115
293.115
293.115
293.115
293.115
293.115
293.115
293.115
293.115
293.115
293.115
293.115
293.115
293.115
293.115
293.115
293.115
293.115
293.115
293.115
293.115
293.115
293.115
293.115
293.115
293.115
293.115
293.115
293.115
293.115
293.115
293.115
293.115
293.115
293.115
293.115
293.115
293.115
293.115
293.115
293.115
293.115
293.114
293.111
293.107
293.096
293.075
293.035
292.968
292.864
292.716
292.524
292.295
292.045
291.798
291.571
291.381
291.233
291.128
291.059
291.019
291
290.996
291.002
291.013
291.029
291.047
291.067
291.09
291.115
291.143
291.174
291.209
291.248
291.292
291.339
291.39
291.443
291.498
291.553
291.606
291.657
291.701
291.74
291.772
291.797
291.817
291.835
291.855
291.879
291.908
291.94
291.976
292.013
292.051
292.088
292.123
292.155
292.184
292.209
292.229
292.245
292.254
292.258
292.26
292.261
292.261
292.261
292.261
292.263
292.268
292.274
292.283
292.294
292.308
292.323
292.342
292.361
292.383
292.406
292.43
292.455
292.481
292.507
292.533
292.561
292.59
292.618
292.644
292.67
292.694
292.717
292.738
292.76
292.781
292.804
292.829
292.855
292.88
292.893
292.884
292.837
292.735
292.568
292.321
291.969
291.48
290.817
289.947
288.855
300.788
295.317
293.726
293.285
293.162
293.128
293.119
293.116
293.116
293.115
293.115
293.115
293.115
293.115
293.115
293.115
293.115
293.115
293.115
293.115
293.115
293.115
293.115
293.115
293.115
293.115
293.115
293.115
293.115
293.115
293.115
293.115
293.115
293.115
293.115
293.115
293.115
293.115
293.115
293.115
293.115
293.115
293.115
293.115
293.115
293.115
293.115
293.115
293.115
293.115
293.115
293.115
293.115
293.115
293.115
293.115
293.115
293.115
293.115
293.115
293.115
293.115
293.115
293.115
293.115
293.115
293.115
293.115
293.115
293.115
293.115
293.115
293.115
293.115
293.115
293.115
293.115
293.115
293.115
293.115
293.115
293.115
293.115
293.115
293.115
293.115
293.115
293.115
293.115
293.115
293.115
293.115
293.114
293.112
293.108
293.1
293.082
293.049
292.992
292.901
292.77
292.595
292.382
292.144
291.902
291.675
291.48
291.322
291.206
291.126
291.076
291.05
291.042
291.046
291.059
291.077
291.099
291.124
291.151
291.18
291.212
291.247
291.285
291.326
291.37
291.416
291.464
291.512
291.559
291.603
291.642
291.676
291.703
291.722
291.735
291.744
291.754
291.77
291.792
291.822
291.859
291.901
291.947
291.995
292.043
292.091
292.136
292.179
292.219
292.254
292.285
292.313
292.336
292.355
292.368
292.378
292.385
292.39
292.395
292.4
292.406
292.412
292.42
292.429
292.441
292.454
292.469
292.486
292.504
292.523
292.545
292.567
292.59
292.615
292.641
292.666
292.69
292.714
292.736
292.757
292.777
292.796
292.814
292.831
292.849
292.868
292.889
292.911
292.935
292.956
292.967
292.944
292.862
292.711
292.477
292.132
291.638
290.95
290.029
288.869
300.925
295.404
293.763
293.298
293.167
293.13
293.12
293.117
293.116
293.115
293.115
293.115
293.115
293.115
293.115
293.115
293.115
293.115
293.115
293.115
293.115
293.115
293.115
293.115
293.115
293.115
293.115
293.115
293.115
293.115
293.115
293.115
293.115
293.115
293.115
293.115
293.115
293.115
293.115
293.115
293.115
293.115
293.115
293.115
293.115
293.115
293.115
293.115
293.115
293.115
293.115
293.115
293.115
293.115
293.115
293.115
293.115
293.115
293.115
293.115
293.115
293.115
293.115
293.115
293.115
293.115
293.115
293.115
293.115
293.115
293.115
293.115
293.115
293.115
293.115
293.115
293.115
293.115
293.115
293.115
293.115
293.115
293.115
293.115
293.115
293.115
293.115
293.115
293.115
293.115
293.115
293.115
293.114
293.113
293.11
293.104
293.089
293.064
293.018
292.943
292.831
292.679
292.486
292.266
292.033
291.808
291.605
291.436
291.304
291.207
291.142
291.103
291.086
291.084
291.094
291.112
291.135
291.162
291.192
291.225
291.259
291.296
291.335
291.375
291.417
291.46
291.502
291.541
291.578
291.61
291.635
291.653
291.664
291.67
291.672
291.676
291.687
291.707
291.736
291.774
291.821
291.873
291.93
291.988
292.047
292.105
292.159
292.211
292.258
292.301
292.34
292.375
292.405
292.432
292.455
292.475
292.491
292.503
292.514
292.523
292.532
292.541
292.551
292.561
292.572
292.585
292.599
292.614
292.631
292.648
292.668
292.689
292.711
292.732
292.754
292.773
292.792
292.81
292.828
292.844
292.86
292.875
292.889
292.903
292.917
292.932
292.948
292.965
292.983
293
293.011
293.001
292.942
292.811
292.594
292.263
291.77
291.063
290.097
288.879
301.051
295.487
293.798
293.312
293.172
293.132
293.12
293.117
293.116
293.115
293.115
293.115
293.115
293.115
293.115
293.115
293.115
293.115
293.115
293.115
293.115
293.115
293.115
293.115
293.115
293.115
293.115
293.115
293.115
293.115
293.115
293.115
293.115
293.115
293.115
293.115
293.115
293.115
293.115
293.115
293.115
293.115
293.115
293.115
293.115
293.115
293.115
293.115
293.115
293.115
293.115
293.115
293.115
293.115
293.115
293.115
293.115
293.115
293.115
293.115
293.115
293.115
293.115
293.115
293.115
293.115
293.115
293.115
293.115
293.115
293.115
293.115
293.115
293.115
293.115
293.115
293.115
293.115
293.115
293.115
293.115
293.115
293.115
293.115
293.115
293.115
293.115
293.115
293.115
293.115
293.115
293.115
293.115
293.114
293.111
293.107
293.097
293.078
293.042
292.984
292.894
292.766
292.599
292.401
292.183
291.963
291.757
291.576
291.427
291.311
291.226
291.17
291.137
291.123
291.125
291.138
291.158
291.185
291.215
291.248
291.283
291.32
291.358
291.397
291.435
291.473
291.508
291.54
291.566
291.587
291.601
291.608
291.61
291.609
291.608
291.614
291.63
291.656
291.694
291.743
291.8
291.864
291.931
291.999
292.068
292.133
292.196
292.254
292.307
292.356
292.4
292.439
292.475
292.506
292.534
292.558
292.58
292.599
292.616
292.631
292.644
292.657
292.668
292.68
292.693
292.706
292.72
292.734
292.751
292.767
292.784
292.8
292.816
292.832
292.848
292.863
292.878
292.892
292.906
292.918
292.93
292.942
292.953
292.965
292.976
292.987
292.999
293.011
293.023
293.034
293.038
293.026
292.982
292.874
292.678
292.363
291.877
291.157
290.153
288.887
301.166
295.565
293.833
293.325
293.177
293.133
293.121
293.117
293.116
293.115
293.115
293.115
293.115
293.115
293.115
293.115
293.115
293.115
293.115
293.115
293.115
293.115
293.115
293.115
293.115
293.115
293.115
293.115
293.115
293.115
293.115
293.115
293.115
293.115
293.115
293.115
293.115
293.115
293.115
293.115
293.115
293.115
293.115
293.115
293.115
293.115
293.115
293.115
293.115
293.115
293.115
293.115
293.115
293.115
293.115
293.115
293.115
293.115
293.115
293.115
293.115
293.115
293.115
293.115
293.115
293.115
293.115
293.115
293.115
293.115
293.115
293.115
293.115
293.115
293.115
293.115
293.115
293.115
293.115
293.115
293.115
293.115
293.115
293.115
293.115
293.115
293.115
293.115
293.115
293.115
293.115
293.115
293.115
293.114
293.113
293.11
293.103
293.089
293.064
293.02
292.952
292.849
292.711
292.54
292.343
292.136
291.932
291.743
291.579
291.444
291.337
291.259
291.205
291.174
291.161
291.162
291.175
291.196
291.223
291.254
291.287
291.323
291.358
291.394
291.429
291.461
291.49
291.515
291.534
291.547
291.554
291.556
291.553
291.55
291.552
291.564
291.587
291.623
291.672
291.732
291.801
291.875
291.952
292.03
292.106
292.178
292.246
292.309
292.367
292.419
292.466
292.508
292.545
292.579
292.608
292.635
292.659
292.681
292.7
292.718
292.734
292.75
292.764
292.778
292.792
292.804
292.817
292.83
292.844
292.857
292.87
292.883
292.896
292.908
292.921
292.933
292.944
292.955
292.966
292.976
292.985
292.995
293.003
293.012
293.02
293.029
293.037
293.045
293.052
293.057
293.055
293.038
292.996
292.905
292.733
292.435
291.956
291.23
290.2
288.894
301.273
295.64
293.865
293.338
293.181
293.135
293.121
293.117
293.116
293.115
293.115
293.115
293.115
293.115
293.115
293.115
293.115
293.115
293.115
293.115
293.115
293.115
293.115
293.115
293.115
293.115
293.115
293.115
293.115
293.115
293.115
293.115
293.115
293.115
293.115
293.115
293.115
293.115
293.115
293.115
293.115
293.115
293.115
293.115
293.115
293.115
293.115
293.115
293.115
293.115
293.115
293.115
293.115
293.115
293.115
293.115
293.115
293.115
293.115
293.115
293.115
293.115
293.115
293.115
293.115
293.115
293.115
293.115
293.115
293.115
293.115
293.115
293.115
293.115
293.115
293.115
293.115
293.115
293.115
293.115
293.115
293.115
293.115
293.115
293.115
293.115
293.115
293.115
293.115
293.115
293.115
293.115
293.115
293.114
293.114
293.111
293.107
293.098
293.081
293.05
293
292.922
292.814
292.672
292.503
292.316
292.122
291.933
291.761
291.609
291.482
291.381
291.304
291.25
291.215
291.199
291.198
291.207
291.225
291.249
291.278
291.308
291.341
291.372
291.403
291.43
291.455
291.475
291.489
291.498
291.501
291.501
291.499
291.499
291.508
291.529
291.563
291.612
291.673
291.745
291.825
291.91
291.996
292.08
292.161
292.238
292.309
292.374
292.434
292.488
292.536
292.578
292.616
292.651
292.68
292.707
292.732
292.754
292.774
292.791
292.808
292.823
292.838
292.851
292.864
292.877
292.889
292.901
292.913
292.924
292.935
292.946
292.956
292.966
292.976
292.985
292.994
293.002
293.011
293.018
293.026
293.033
293.04
293.046
293.052
293.058
293.064
293.069
293.072
293.072
293.066
293.045
293.001
292.918
292.76
292.476
292.007
291.284
290.247
288.899
301.371
295.711
293.897
293.351
293.186
293.137
293.122
293.117
293.116
293.115
293.115
293.115
293.115
293.115
293.115
293.115
293.115
293.115
293.115
293.115
293.115
293.115
293.115
293.115
293.115
293.115
293.115
293.115
293.115
293.115
293.115
293.115
293.115
293.115
293.115
293.115
293.115
293.115
293.115
293.115
293.115
293.115
293.115
293.115
293.115
293.115
293.115
293.115
293.115
293.115
293.115
293.115
293.115
293.115
293.115
293.115
293.115
293.115
293.115
293.115
293.115
293.115
293.115
293.115
293.115
293.115
293.115
293.115
293.115
293.115
293.115
293.115
293.115
293.115
293.115
293.115
293.115
293.115
293.115
293.115
293.115
293.115
293.115
293.115
293.115
293.115
293.115
293.115
293.115
293.115
293.115
293.115
293.115
293.115
293.114
293.113
293.111
293.104
293.094
293.073
293.038
292.983
292.901
292.791
292.652
292.491
292.316
292.136
291.964
291.804
291.662
291.541
291.441
291.363
291.305
291.266
291.243
291.234
291.237
291.249
291.268
291.291
291.316
291.342
291.367
291.39
291.41
291.426
291.437
291.445
291.448
291.449
291.452
291.461
291.482
291.516
291.565
291.628
291.703
291.788
291.878
291.97
292.062
292.15
292.234
292.312
292.384
292.45
292.508
292.561
292.608
292.649
292.687
292.719
292.749
292.775
292.798
292.819
292.838
292.855
292.871
292.885
292.899
292.912
292.923
292.934
292.945
292.955
292.965
292.975
292.984
292.993
293.001
293.009
293.016
293.024
293.03
293.037
293.043
293.049
293.055
293.06
293.065
293.07
293.074
293.078
293.082
293.084
293.085
293.082
293.073
293.05
293.005
292.922
292.772
292.5
292.041
291.326
290.285
288.904
301.462
295.777
293.928
293.363
293.191
293.138
293.122
293.117
293.116
293.116
293.115
293.115
293.115
293.115
293.115
293.115
293.115
293.115
293.115
293.115
293.115
293.115
293.115
293.115
293.115
293.115
293.115
293.115
293.115
293.115
293.115
293.115
293.115
293.115
293.115
293.115
293.115
293.115
293.115
293.115
293.115
293.115
293.115
293.115
293.115
293.115
293.115
293.115
293.115
293.115
293.115
293.115
293.115
293.115
293.115
293.115
293.115
293.115
293.115
293.115
293.115
293.115
293.115
293.115
293.115
293.115
293.115
293.115
293.115
293.115
293.115
293.115
293.115
293.115
293.115
293.115
293.115
293.115
293.115
293.115
293.115
293.115
293.115
293.115
293.115
293.115
293.115
293.115
293.115
293.115
293.115
293.115
293.115
293.115
293.115
293.114
293.112
293.108
293.102
293.09
293.067
293.029
292.971
292.89
292.782
292.651
292.501
292.34
292.177
292.018
291.87
291.736
291.62
291.521
291.44
291.377
291.33
291.299
291.281
291.274
291.277
291.287
291.301
291.318
291.336
291.354
291.369
291.382
291.393
291.4
291.406
291.414
291.427
291.45
291.486
291.537
291.603
291.68
291.767
291.861
291.958
292.055
292.148
292.237
292.321
292.397
292.467
292.53
292.586
292.636
292.68
292.719
292.754
292.784
292.812
292.836
292.858
292.877
292.894
292.91
292.923
292.937
292.949
292.959
292.97
292.98
292.989
292.998
293.006
293.014
293.021
293.027
293.034
293.04
293.046
293.052
293.057
293.062
293.067
293.071
293.075
293.079
293.083
293.086
293.089
293.092
293.094
293.095
293.094
293.089
293.077
293.053
293.008
292.926
292.78
292.522
292.077
291.363
290.305
288.908
301.525
295.836
293.958
293.375
293.196
293.14
293.123
293.118
293.116
293.116
293.115
293.115
293.115
293.115
293.115
293.115
293.115
293.115
293.115
293.115
293.115
293.115
293.115
293.115
293.115
293.115
293.115
293.115
293.115
293.115
293.115
293.115
293.115
293.115
293.115
293.115
293.115
293.115
293.115
293.115
293.115
293.115
293.115
293.115
293.115
293.115
293.115
293.115
293.115
293.115
293.115
293.115
293.115
293.115
293.115
293.115
293.115
293.115
293.115
293.115
293.115
293.115
293.115
293.115
293.115
293.115
293.115
293.115
293.115
293.115
293.115
293.115
293.115
293.115
293.115
293.115
293.115
293.115
293.115
293.115
293.115
293.115
293.115
293.115
293.115
293.115
293.115
293.115
293.115
293.115
293.115
293.115
293.115
293.115
293.115
293.114
293.114
293.111
293.108
293.1
293.086
293.062
293.024
292.966
292.888
292.787
292.667
292.53
292.385
292.237
292.092
291.956
291.831
291.719
291.621
291.538
291.47
291.416
291.376
291.348
291.331
291.323
291.322
291.327
291.334
291.344
291.355
291.365
291.375
291.385
291.396
291.414
291.441
291.482
291.536
291.603
291.683
291.772
291.867
291.966
292.065
292.162
292.254
292.339
292.419
292.491
292.556
292.613
292.665
292.71
292.751
292.786
292.818
292.845
292.869
292.891
292.91
292.927
292.942
292.955
292.968
292.98
292.989
292.999
293.007
293.016
293.023
293.03
293.037
293.043
293.048
293.053
293.059
293.063
293.068
293.072
293.076
293.08
293.083
293.086
293.089
293.092
293.094
293.097
293.099
293.1
293.101
293.101
293.099
293.093
293.081
293.056
293.011
292.929
292.788
292.54
292.106
291.392
290.318
288.912
301.601
295.902
293.99
293.389
293.201
293.142
293.124
293.118
293.116
293.116
293.115
293.115
293.115
293.115
293.115
293.115
293.115
293.115
293.115
293.115
293.115
293.115
293.115
293.115
293.115
293.115
293.115
293.115
293.115
293.115
293.115
293.115
293.115
293.115
293.115
293.115
293.115
293.115
293.115
293.115
293.115
293.115
293.115
293.115
293.115
293.115
293.115
293.115
293.115
293.115
293.115
293.115
293.115
293.115
293.115
293.115
293.115
293.115
293.115
293.115
293.115
293.115
293.115
293.115
293.115
293.115
293.115
293.115
293.115
293.115
293.115
293.115
293.115
293.115
293.115
293.115
293.115
293.115
293.115
293.115
293.115
293.115
293.115
293.115
293.115
293.115
293.115
293.115
293.115
293.115
293.115
293.115
293.115
293.115
293.115