/*--------------------------------*- C++ -*----------------------------------*\
  =========                 |
  \\      /  F ield         | OpenFOAM: The Open Source CFD Toolbox
   \\    /   O peration     | Website:  https://openfoam.org
    \\  /    A nd           | Version:  12
     \\/     M anipulation  |
\*---------------------------------------------------------------------------*/
FoamFile
{
    format      ascii;
    class       volVectorField;
    location    "10.03";
    object      U;
}
// * * * * * * * * * * * * * * * * * * * * * * * * * * * * * * * * * * * * * //

dimensions      [0 1 -1 0 0 0 0];

internalField   nonuniform List<vector> 
40000
(
(-0.0119176 0.00835676 0)
(-0.0170038 -0.000223464 0)
(-0.014852 -0.00176575 0)
(-0.0117202 -0.00152674 0)
(-0.00909147 -0.00104044 0)
(-0.00722356 -0.00066373 0)
(-0.00593547 -0.000418491 0)
(-0.00503746 -0.000266454 0)
(-0.00439598 -0.000173131 0)
(-0.00392632 -0.000114934 0)
(-0.00357461 -7.79511e-05 0)
(-0.00330589 -5.37817e-05 0)
(-0.00309718 -3.75101e-05 0)
(-0.00293294 -2.62293e-05 0)
(-0.00280251 -1.81742e-05 0)
(-0.00269828 -1.22639e-05 0)
(-0.00261482 -7.82916e-06 0)
(-0.00254807 -4.43669e-06 0)
(-0.00249501 -1.79288e-06 0)
(-0.00245332 3.08195e-07 0)
(-0.00242121 1.99341e-06 0)
(-0.00239724 3.31791e-06 0)
(-0.00238029 4.29478e-06 0)
(-0.0023695 4.89272e-06 0)
(-0.00236457 5.08338e-06 0)
(-0.00236493 5.58347e-06 0)
(-0.00236933 6.50081e-06 0)
(-0.00237741 7.92876e-06 0)
(-0.00238933 9.06464e-06 0)
(-0.00240476 9.89489e-06 0)
(-0.00242328 1.05678e-05 0)
(-0.00244461 1.11596e-05 0)
(-0.00246853 1.17101e-05 0)
(-0.00249491 1.22443e-05 0)
(-0.00252366 1.27737e-05 0)
(-0.00255469 1.33064e-05 0)
(-0.00258797 1.38445e-05 0)
(-0.00262345 1.43903e-05 0)
(-0.00266114 1.49533e-05 0)
(-0.002701 1.55351e-05 0)
(-0.00274305 1.61347e-05 0)
(-0.00278735 1.67498e-05 0)
(-0.00283387 1.73841e-05 0)
(-0.00288269 1.8052e-05 0)
(-0.00293383 1.87459e-05 0)
(-0.00298738 1.94642e-05 0)
(-0.0030434 2.02165e-05 0)
(-0.00310195 2.10099e-05 0)
(-0.00316315 2.18426e-05 0)
(-0.00322709 2.27151e-05 0)
(-0.00329386 2.36333e-05 0)
(-0.0033636 2.45917e-05 0)
(-0.00343645 2.56095e-05 0)
(-0.00351254 2.66812e-05 0)
(-0.00359202 2.78051e-05 0)
(-0.00367506 2.89876e-05 0)
(-0.00376185 3.024e-05 0)
(-0.00385257 3.15634e-05 0)
(-0.00394746 3.29665e-05 0)
(-0.00404672 3.44466e-05 0)
(-0.00415061 3.60098e-05 0)
(-0.00425938 3.76657e-05 0)
(-0.00437332 3.9429e-05 0)
(-0.00449275 4.12978e-05 0)
(-0.004618 4.32862e-05 0)
(-0.00474944 4.53959e-05 0)
(-0.00488746 4.76449e-05 0)
(-0.00503247 5.00376e-05 0)
(-0.00518494 5.25925e-05 0)
(-0.00534538 5.53148e-05 0)
(-0.00551431 5.82213e-05 0)
(-0.00569232 6.13195e-05 0)
(-0.00588005 6.4626e-05 0)
(-0.00607816 6.81634e-05 0)
(-0.00628741 7.19474e-05 0)
(-0.00650859 7.59921e-05 0)
(-0.00674258 8.03229e-05 0)
(-0.00699035 8.49625e-05 0)
(-0.00725292 8.99342e-05 0)
(-0.00753142 9.52574e-05 0)
(-0.00782708 0.000100961 0)
(-0.0081412 0.000107075 0)
(-0.00847526 0.000113622 0)
(-0.00883084 0.000120629 0)
(-0.00920969 0.00012814 0)
(-0.0096137 0.000136184 0)
(-0.010045 0.000144829 0)
(-0.010506 0.000154079 0)
(-0.0109992 0.00016404 0)
(-0.0115278 0.000174704 0)
(-0.0120952 0.000186192 0)
(-0.0127051 0.00019854 0)
(-0.0133621 0.000211798 0)
(-0.0140717 0.000226 0)
(-0.01484 0.00024104 0)
(-0.0156742 0.000256785 0)
(-0.0165822 0.000272732 0)
(-0.0175722 0.000288195 0)
(-0.018651 0.000302292 0)
(-0.0198216 0.000313772 0)
(-0.0210786 0.00032177 0)
(-0.0224017 0.000324752 0)
(-0.0237504 0.000320976 0)
(-0.0250611 0.000306548 0)
(-0.0262505 0.000277472 0)
(-0.0272284 0.000229753 0)
(-0.0279132 0.000163065 0)
(-0.0282412 8.24796e-05 0)
(-0.0281805 1.26963e-05 0)
(-0.0277556 -5.33007e-05 0)
(-0.0269361 -0.000137367 0)
(-0.0257506 -0.000237516 0)
(-0.0242493 -0.000341854 0)
(-0.0225035 -0.000436658 0)
(-0.0205979 -0.000510445 0)
(-0.0186218 -0.000554705 0)
(-0.0166641 -0.000564703 0)
(-0.0148085 -0.000538553 0)
(-0.0131321 -0.000476899 0)
(-0.011702 -0.00038224 0)
(-0.0105722 -0.000259298 0)
(-0.00977954 -0.000115635 0)
(-0.00933629 4.0251e-05 0)
(-0.00923306 0.000191217 0)
(-0.00951391 0.000310694 0)
(-0.0101551 0.000383108 0)
(-0.0110799 0.000400287 0)
(-0.0121827 0.000359658 0)
(-0.0133613 0.000263512 0)
(-0.0145424 0.000126191 0)
(-0.0156944 -2.26584e-05 0)
(-0.0168291 -0.000145322 0)
(-0.017992 -0.000207913 0)
(-0.0192398 -0.000192744 0)
(-0.0206154 -0.00010487 0)
(-0.0221288 3.09504e-05 0)
(-0.0237515 0.000181303 0)
(-0.0254249 0.000315806 0)
(-0.0270767 0.000414755 0)
(-0.0286381 0.000471492 0)
(-0.0300551 0.000488862 0)
(-0.0312934 0.000475632 0)
(-0.0323378 0.000441151 0)
(-0.0331885 0.000394145 0)
(-0.033858 0.000341472 0)
(-0.0343685 0.000288163 0)
(-0.0347473 0.000238077 0)
(-0.0350264 0.00019503 0)
(-0.0352394 0.000162517 0)
(-0.0354207 0.000143266 0)
(-0.0356043 0.000137927 0)
(-0.0358249 0.000145172 0)
(-0.0361183 0.000164734 0)
(-0.0365193 0.000196975 0)
(-0.0370611 0.000243397 0)
(-0.0377742 0.000305059 0)
(-0.0386857 0.00038263 0)
(-0.0398196 0.000476564 0)
(-0.041197 0.00058681 0)
(-0.0428345 0.000712832 0)
(-0.0447451 0.000853421 0)
(-0.0469362 0.00100643 0)
(-0.0494109 0.00116985 0)
(-0.0521672 0.00134074 0)
(-0.0551988 0.00151594 0)
(-0.058495 0.00169225 0)
(-0.0620413 0.00186671 0)
(-0.0658201 0.00203649 0)
(-0.0698105 0.00219922 0)
(-0.0739899 0.00235294 0)
(-0.0783345 0.00249644 0)
(-0.0828197 0.00262891 0)
(-0.0874198 0.00274972 0)
(-0.0921099 0.00285867 0)
(-0.0968646 0.00295602 0)
(-0.101659 0.00304159 0)
(-0.106467 0.00311527 0)
(-0.111262 0.00317625 0)
(-0.116015 0.003223 0)
(-0.120693 0.00325294 0)
(-0.125256 0.00326147 0)
(-0.129651 0.00324229 0)
(-0.133814 0.00318679 0)
(-0.137663 0.00308166 0)
(-0.141093 0.00290707 0)
(-0.143954 0.00264102 0)
(-0.146041 0.00225929 0)
(-0.147156 0.00170932 0)
(-0.147115 0.000932509 0)
(-0.145015 7.35992e-05 0)
(-0.139944 -0.00106222 0)
(-0.136233 -0.0028031 0)
(-0.12357 -0.00109316 0)
(-0.10761 -0.00455992 0)
(-0.0895103 -0.00931971 0)
(-0.0643815 -0.0143255 0)
(-0.0374109 -0.0174847 0)
(-0.0107842 -0.0162888 0)
(0.013663 -0.0023104 0)
(0.0108676 0.00649528 0)
(-0.00999855 0.021366 0)
(-0.0160205 0.00237298 0)
(-0.0170457 -0.0036122 0)
(-0.0159398 -0.00403797 0)
(-0.0142967 -0.00324344 0)
(-0.0127472 -0.00239686 0)
(-0.0114518 -0.00174137 0)
(-0.0104041 -0.00127375 0)
(-0.00956197 -0.000946934 0)
(-0.0088829 -0.000716226 0)
(-0.00833217 -0.000550963 0)
(-0.00788257 -0.000430127 0)
(-0.00751326 -0.000339865 0)
(-0.00720832 -0.000271021 0)
(-0.00695551 -0.000217467 0)
(-0.00674542 -0.000175033 0)
(-0.00657069 -0.000140874 0)
(-0.00642553 -0.000112943 0)
(-0.00630542 -8.98011e-05 0)
(-0.00620669 -7.0348e-05 0)
(-0.00612636 -5.38446e-05 0)
(-0.00606209 -3.96933e-05 0)
(-0.00601195 -2.75029e-05 0)
(-0.00597436 -1.69028e-05 0)
(-0.00594766 -7.63407e-06 0)
(-0.00593049 1.02286e-06 0)
(-0.00592166 9.15103e-06 0)
(-0.00592109 1.65576e-05 0)
(-0.00592918 2.38073e-05 0)
(-0.00594469 3.01128e-05 0)
(-0.00596664 3.5721e-05 0)
(-0.00599455 4.0862e-05 0)
(-0.00602801 4.56827e-05 0)
(-0.00606673 5.02749e-05 0)
(-0.00611045 5.46744e-05 0)
(-0.006159 5.8961e-05 0)
(-0.00621223 6.31236e-05 0)
(-0.00627001 6.72502e-05 0)
(-0.00633224 7.13257e-05 0)
(-0.00639888 7.54039e-05 0)
(-0.00646993 7.94809e-05 0)
(-0.00654535 8.35781e-05 0)
(-0.00662515 8.77432e-05 0)
(-0.00670939 9.19735e-05 0)
(-0.00679813 9.6294e-05 0)
(-0.00689143 0.000100706 0)
(-0.00698937 0.000105265 0)
(-0.00709209 0.000109956 0)
(-0.00719971 0.000114816 0)
(-0.00731237 0.000119835 0)
(-0.00743026 0.000125068 0)
(-0.00755354 0.000130515 0)
(-0.00768243 0.000136191 0)
(-0.00781718 0.000142129 0)
(-0.00795801 0.000148349 0)
(-0.0081052 0.00015486 0)
(-0.00825906 0.000161711 0)
(-0.00841991 0.000168916 0)
(-0.00858811 0.000176506 0)
(-0.00876402 0.000184503 0)
(-0.00894807 0.000192945 0)
(-0.00914072 0.000201877 0)
(-0.00934245 0.000211328 0)
(-0.0095538 0.000221359 0)
(-0.00977532 0.000232003 0)
(-0.0100076 0.000243298 0)
(-0.0102515 0.000255331 0)
(-0.0105075 0.000268139 0)
(-0.0107765 0.000281779 0)
(-0.0110595 0.000296344 0)
(-0.0113573 0.000311908 0)
(-0.0116709 0.000328521 0)
(-0.0120015 0.000346298 0)
(-0.0123503 0.000365351 0)
(-0.0127186 0.000385775 0)
(-0.0131079 0.000407689 0)
(-0.0135198 0.000431243 0)
(-0.0139561 0.000456582 0)
(-0.0144186 0.000483859 0)
(-0.0149095 0.000513249 0)
(-0.0154312 0.000544957 0)
(-0.0159862 0.00057919 0)
(-0.0165775 0.000616215 0)
(-0.0172081 0.000656269 0)
(-0.0178818 0.000699722 0)
(-0.0186026 0.00074688 0)
(-0.019375 0.000798243 0)
(-0.0202043 0.000854275 0)
(-0.0210964 0.000915638 0)
(-0.0220584 0.000983039 0)
(-0.0230986 0.00105743 0)
(-0.024227 0.00114 0)
(-0.0254559 0.00123225 0)
(-0.0268005 0.00133597 0)
(-0.0282801 0.00145341 0)
(-0.0299184 0.00158713 0)
(-0.0317436 0.00173887 0)
(-0.0337851 0.00190907 0)
(-0.0360669 0.00209394 0)
(-0.0385955 0.00228109 0)
(-0.0413421 0.00244691 0)
(-0.044229 0.00255397 0)
(-0.0471245 0.00255675 0)
(-0.0498542 0.00241213 0)
(-0.052229 0.00209637 0)
(-0.0540777 0.00161369 0)
(-0.0552692 0.0009976 0)
(-0.0557071 0.000294912 0)
(-0.0553771 -0.000431879 0)
(-0.0543154 -0.00116249 0)
(-0.0526204 -0.00185697 0)
(-0.050441 -0.00246165 0)
(-0.0479398 -0.0029354 0)
(-0.0452672 -0.00325749 0)
(-0.0425517 -0.00342438 0)
(-0.0398998 -0.00344165 0)
(-0.0374004 -0.00331939 0)
(-0.0351295 -0.00306954 0)
(-0.0331532 -0.00270652 0)
(-0.0315292 -0.00225137 0)
(-0.0303069 -0.00173688 0)
(-0.0295267 -0.0011954 0)
(-0.0292371 -0.000626502 0)
(-0.0295812 -3.37492e-06 0)
(-0.03067 0.000656089 0)
(-0.0324338 0.00127346 0)
(-0.0348316 0.00178779 0)
(-0.0377943 0.00216637 0)
(-0.041239 0.00241204 0)
(-0.0450726 0.00256551 0)
(-0.0492015 0.00268763 0)
(-0.0535265 0.00282942 0)
(-0.0579389 0.00300863 0)
(-0.0623265 0.00320552 0)
(-0.0665873 0.00337596 0)
(-0.0706411 0.00347442 0)
(-0.074432 0.00347112 0)
(-0.077924 0.00335688 0)
(-0.0810939 0.0031414 0)
(-0.0839274 0.00284656 0)
(-0.0864177 0.0024998 0)
(-0.0885678 0.00212906 0)
(-0.0903906 0.00175832 0)
(-0.0919091 0.00140794 0)
(-0.0931556 0.00109378 0)
(-0.0941697 0.00082712 0)
(-0.0949959 0.00061583 0)
(-0.0956817 0.000465176 0)
(-0.096276 0.000378096 0)
(-0.0968277 0.000355409 0)
(-0.0973839 0.000396105 0)
(-0.0979881 0.000496934 0)
(-0.0986797 0.000653516 0)
(-0.099493 0.000860825 0)
(-0.100458 0.00111519 0)
(-0.1016 0.00141178 0)
(-0.102941 0.00174496 0)
(-0.104496 0.00210835 0)
(-0.106275 0.00249466 0)
(-0.108281 0.00289656 0)
(-0.110514 0.00330644 0)
(-0.112968 0.00371646 0)
(-0.115632 0.00411985 0)
(-0.118491 0.00450945 0)
(-0.121526 0.00487856 0)
(-0.124715 0.00522141 0)
(-0.128032 0.00553313 0)
(-0.131452 0.00581018 0)
(-0.134945 0.0060497 0)
(-0.138484 0.00624954 0)
(-0.142037 0.0064088 0)
(-0.145578 0.00652718 0)
(-0.149078 0.00660459 0)
(-0.152509 0.00664137 0)
(-0.155843 0.00663768 0)
(-0.159055 0.0065926 0)
(-0.162115 0.00650451 0)
(-0.164997 0.0063704 0)
(-0.167665 0.00618516 0)
(-0.170086 0.00594078 0)
(-0.172216 0.00562591 0)
(-0.174005 0.0052254 0)
(-0.175396 0.00471771 0)
(-0.176317 0.00406943 0)
(-0.176666 0.00323194 0)
(-0.176285 0.00214156 0)
(-0.174965 0.000719164 0)
(-0.172535 -0.00113281 0)
(-0.168692 -0.00339271 0)
(-0.16293 -0.00606416 0)
(-0.154815 -0.0096601 0)
(-0.145008 -0.0150807 0)
(-0.133026 -0.0182558 0)
(-0.117272 -0.0272432 0)
(-0.0979667 -0.0337965 0)
(-0.0755586 -0.0398535 0)
(-0.0510543 -0.0425633 0)
(-0.0268708 -0.0376547 0)
(-0.00425208 -0.0172661 0)
(0.00961633 0.0137403 0)
(-0.00789431 0.0330725 0)
(-0.0133667 0.00783327 0)
(-0.0158977 -0.00268105 0)
(-0.0161234 -0.00473028 0)
(-0.015488 -0.00434642 0)
(-0.0146049 -0.00350754 0)
(-0.013724 -0.00274102 0)
(-0.012924 -0.00213795 0)
(-0.0122233 -0.00168249 0)
(-0.0116192 -0.00133841 0)
(-0.0111021 -0.00107652 0)
(-0.0106609 -0.000874474 0)
(-0.0102848 -0.000716317 0)
(-0.0099644 -0.000590667 0)
(-0.00969131 -0.000489425 0)
(-0.00945884 -0.000406737 0)
(-0.0092612 -0.000338347 0)
(-0.00909364 -0.000281116 0)
(-0.00895221 -0.000232679 0)
(-0.00883363 -0.000191251 0)
(-0.00873515 -0.000155419 0)
(-0.00865446 -0.000124131 0)
(-0.00858964 -9.64747e-05 0)
(-0.00853902 -7.17011e-05 0)
(-0.00850119 -4.90731e-05 0)
(-0.008475 -2.83221e-05 0)
(-0.00845938 -9.2796e-06 0)
(-0.00845249 6.87645e-06 0)
(-0.00845456 2.11492e-05 0)
(-0.00846613 3.4113e-05 0)
(-0.00848537 4.62441e-05 0)
(-0.00851174 5.77014e-05 0)
(-0.00854493 6.85918e-05 0)
(-0.00858465 7.90036e-05 0)
(-0.00863059 8.901e-05 0)
(-0.00868258 9.8693e-05 0)
(-0.00874041 0.000108138 0)
(-0.00880392 0.000117404 0)
(-0.00887301 0.000126546 0)
(-0.00894758 0.000135611 0)
(-0.00902764 0.000144655 0)
(-0.0091131 0.000153739 0)
(-0.009204 0.000162886 0)
(-0.00930039 0.000172136 0)
(-0.0094023 0.000181553 0)
(-0.00950979 0.000191144 0)
(-0.00962299 0.000200989 0)
(-0.009742 0.000211075 0)
(-0.009867 0.000221469 0)
(-0.00999815 0.000232224 0)
(-0.0101356 0.000243343 0)
(-0.0102796 0.000254912 0)
(-0.0104303 0.000266937 0)
(-0.0105881 0.000279479 0)
(-0.0107532 0.000292603 0)
(-0.010926 0.000306337 0)
(-0.0111067 0.000320729 0)
(-0.0112958 0.000335851 0)
(-0.0114937 0.000351759 0)
(-0.0117009 0.000368545 0)
(-0.0119178 0.000386226 0)
(-0.0121449 0.000404924 0)
(-0.0123829 0.000424705 0)
(-0.0126323 0.000445671 0)
(-0.0128939 0.000467936 0)
(-0.0131685 0.000491566 0)
(-0.0134567 0.000516701 0)
(-0.0137595 0.000543495 0)
(-0.0140778 0.000572048 0)
(-0.0144128 0.000602516 0)
(-0.0147655 0.000635109 0)
(-0.0151371 0.000669979 0)
(-0.0155292 0.000707325 0)
(-0.0159431 0.000747404 0)
(-0.0163805 0.000790457 0)
(-0.0168432 0.000836719 0)
(-0.0173332 0.000886561 0)
(-0.0178528 0.000940298 0)
(-0.0184043 0.000998357 0)
(-0.0189905 0.00106109 0)
(-0.0196143 0.00112902 0)
(-0.0202792 0.00120275 0)
(-0.0209889 0.00128283 0)
(-0.0217476 0.00137003 0)
(-0.0225604 0.00146519 0)
(-0.0234325 0.00156928 0)
(-0.0243704 0.00168351 0)
(-0.0253816 0.00180942 0)
(-0.0264746 0.00194878 0)
(-0.02766 0.00210396 0)
(-0.0289505 0.00227796 0)
(-0.0303619 0.00247479 0)
(-0.0319142 0.00269984 0)
(-0.0336328 0.00295993 0)
(-0.03555 0.00326347 0)
(-0.0377037 0.00361876 0)
(-0.0401348 0.00403042 0)
(-0.0428769 0.00449255 0)
(-0.0459403 0.00497911 0)
(-0.0492907 0.00543472 0)
(-0.0528315 0.00577509 0)
(-0.0564002 0.00589825 0)
(-0.0597857 0.00571129 0)
(-0.0627615 0.0051577 0)
(-0.0651245 0.00423786 0)
(-0.0667284 0.00300883 0)
(-0.0674983 0.00156912 0)
(-0.0674138 1.6314e-05 0)
(-0.0665537 -0.00155155 0)
(-0.0650503 -0.00297862 0)
(-0.063122 -0.00415831 0)
(-0.060963 -0.00504328 0)
(-0.0587282 -0.00562792 0)
(-0.0565335 -0.00593123 0)
(-0.0544652 -0.00598267 0)
(-0.0525915 -0.00581136 0)
(-0.0509719 -0.00544251 0)
(-0.0496651 -0.00489915 0)
(-0.0487356 -0.00420376 0)
(-0.0482586 -0.00337283 0)
(-0.0483187 -0.00239259 0)
(-0.0490294 -0.00121131 0)
(-0.0506986 0.000194509 0)
(-0.0532345 0.00171682 0)
(-0.0563066 0.00318779 0)
(-0.0598659 0.00450165 0)
(-0.0638545 0.0056065 0)
(-0.0682264 0.00648542 0)
(-0.0729225 0.00714719 0)
(-0.0778594 0.0076155 0)
(-0.0829315 0.00791857 0)
(-0.0880201 0.00808177 0)
(-0.0930075 0.00812296 0)
(-0.0977889 0.0080526 0)
(-0.10228 0.00787341 0)
(-0.106419 0.00758438 0)
(-0.110167 0.00718536 0)
(-0.113507 0.00668177 0)
(-0.116434 0.00608875 0)
(-0.118958 0.00542984 0)
(-0.121099 0.00473484 0)
(-0.122882 0.00403547 0)
(-0.124341 0.00336162 0)
(-0.125515 0.00274003 0)
(-0.126445 0.0021929 0)
(-0.127178 0.00173622 0)
(-0.127761 0.00138012 0)
(-0.128239 0.00112934 0)
(-0.128656 0.000983953 0)
(-0.129051 0.000941627 0)
(-0.12946 0.000998606 0)
(-0.129915 0.00115026 0)
(-0.130445 0.00139082 0)
(-0.131072 0.00171238 0)
(-0.131817 0.0021059 0)
(-0.132693 0.00256085 0)
(-0.133711 0.00306614 0)
(-0.134877 0.0036106 0)
(-0.136191 0.00418257 0)
(-0.137651 0.0047699 0)
(-0.139248 0.00535996 0)
(-0.14097 0.00594055 0)
(-0.142802 0.00650058 0)
(-0.144725 0.00702982 0)
(-0.146721 0.0075188 0)
(-0.148766 0.00795971 0)
(-0.150837 0.00834579 0)
(-0.15291 0.00867219 0)
(-0.154963 0.00893548 0)
(-0.156971 0.00913372 0)
(-0.158913 0.00926608 0)
(-0.160768 0.00933238 0)
(-0.162517 0.00933336 0)
(-0.164142 0.00927027 0)
(-0.165629 0.00914338 0)
(-0.166962 0.00895182 0)
(-0.168126 0.00869308 0)
(-0.169109 0.00836245 0)
(-0.169894 0.00795154 0)
(-0.170466 0.00744813 0)
(-0.170803 0.00683572 0)
(-0.170884 0.0060913 0)
(-0.170683 0.00518073 0)
(-0.170169 0.00404971 0)
(-0.169285 0.00261314 0)
(-0.167943 0.000750522 0)
(-0.166044 -0.00165857 0)
(-0.16361 -0.00470465 0)
(-0.160262 -0.00848876 0)
(-0.155691 -0.0132007 0)
(-0.149789 -0.0191682 0)
(-0.142142 -0.0267456 0)
(-0.131071 -0.0350717 0)
(-0.117017 -0.0441048 0)
(-0.100845 -0.0535526 0)
(-0.0817907 -0.061783 0)
(-0.0605511 -0.0659465 0)
(-0.0383508 -0.0605275 0)
(-0.0175742 -0.036798 0)
(0.00636506 0.0139348 0)
(-0.00640975 0.0424679 0)
(-0.0115243 0.0129137 0)
(-0.0144998 -0.00103668 0)
(-0.0153867 -0.00463509 0)
(-0.0153618 -0.00481861 0)
(-0.0149725 -0.00415226 0)
(-0.0144652 -0.00340493 0)
(-0.0139405 -0.00276202 0)
(-0.0134399 -0.00224613 0)
(-0.0129803 -0.00183726 0)
(-0.0125675 -0.0015131 0)
(-0.012201 -0.00125408 0)
(-0.0118785 -0.00104503 0)
(-0.011596 -0.000874497 0)
(-0.0113497 -0.000733881 0)
(-0.0111357 -0.000616705 0)
(-0.0109505 -0.00051804 0)
(-0.0107909 -0.000434192 0)
(-0.0106543 -0.000362227 0)
(-0.0105382 -0.000299942 0)
(-0.0104405 -0.00024554 0)
(-0.0103594 -0.000197603 0)
(-0.0102932 -0.000154986 0)
(-0.0102406 -0.000116718 0)
(-0.0102004 -8.19676e-05 0)
(-0.0101717 -5.00669e-05 0)
(-0.0101546 -2.03754e-05 0)
(-0.0101478 7.03141e-06 0)
(-0.0101491 2.92937e-05 0)
(-0.0101582 4.99788e-05 0)
(-0.0101749 6.96978e-05 0)
(-0.0101989 8.84789e-05 0)
(-0.0102302 0.000106411 0)
(-0.0102684 0.000123554 0)
(-0.0103132 0.000140082 0)
(-0.0103644 0.00015604 0)
(-0.010422 0.000171629 0)
(-0.0104857 0.000186889 0)
(-0.0105554 0.000201938 0)
(-0.010631 0.000216844 0)
(-0.0107127 0.000231701 0)
(-0.0108002 0.000246604 0)
(-0.0108936 0.000261574 0)
(-0.010993 0.000276703 0)
(-0.0110984 0.000292048 0)
(-0.0112098 0.000307688 0)
(-0.0113274 0.00032366 0)
(-0.0114514 0.000340046 0)
(-0.0115819 0.000356868 0)
(-0.011719 0.000374267 0)
(-0.011863 0.000392252 0)
(-0.0120141 0.000410904 0)
(-0.0121726 0.000430289 0)
(-0.0123385 0.000450477 0)
(-0.0125125 0.00047155 0)
(-0.0126948 0.000493602 0)
(-0.0128858 0.000516693 0)
(-0.0130857 0.000540948 0)
(-0.0132951 0.000566417 0)
(-0.0135146 0.000593275 0)
(-0.0137446 0.000621581 0)
(-0.0139857 0.000651469 0)
(-0.0142385 0.000683106 0)
(-0.0145037 0.000716599 0)
(-0.014782 0.00075213 0)
(-0.0150743 0.000789891 0)
(-0.0153815 0.000830037 0)
(-0.0157045 0.00087279 0)
(-0.0160443 0.000918407 0)
(-0.0164021 0.00096712 0)
(-0.0167792 0.00101923 0)
(-0.0171769 0.00107499 0)
(-0.0175967 0.00113476 0)
(-0.0180404 0.00119897 0)
(-0.0185098 0.001268 0)
(-0.0190068 0.00134232 0)
(-0.0195337 0.00142245 0)
(-0.0200929 0.00150898 0)
(-0.0206874 0.00160261 0)
(-0.0213201 0.00170408 0)
(-0.0219944 0.00181421 0)
(-0.0227144 0.00193403 0)
(-0.0234843 0.00206463 0)
(-0.0243092 0.0022074 0)
(-0.0251949 0.00236386 0)
(-0.026148 0.00253594 0)
(-0.027176 0.0027259 0)
(-0.0282881 0.00293666 0)
(-0.0294952 0.00317185 0)
(-0.0308105 0.00343627 0)
(-0.0322503 0.00373628 0)
(-0.0338353 0.00408034 0)
(-0.0355914 0.00447943 0)
(-0.0375515 0.00494755 0)
(-0.0397553 0.00549949 0)
(-0.0422457 0.00614584 0)
(-0.0450619 0.00688428 0)
(-0.048223 0.00768394 0)
(-0.0517082 0.00847275 0)
(-0.0554359 0.00913172 0)
(-0.0592568 0.00951035 0)
(-0.0629649 0.00945752 0)
(-0.0663274 0.00886464 0)
(-0.0691261 0.00769805 0)
(-0.0711957 0.00601418 0)
(-0.0724529 0.00394794 0)
(-0.0729078 0.00168066 0)
(-0.0726658 -0.000625533 0)
(-0.0718795 -0.00278099 0)
(-0.0707531 -0.0045769 0)
(-0.0694883 -0.00593137 0)
(-0.0682217 -0.00684302 0)
(-0.0670502 -0.00734975 0)
(-0.0660433 -0.00750118 0)
(-0.0652568 -0.00734293 0)
(-0.0647439 -0.00690776 0)
(-0.0645643 -0.00621461 0)
(-0.0647896 -0.00526893 0)
(-0.0655009 -0.00405613 0)
(-0.0667813 -0.00253958 0)
(-0.0687431 -0.000710197 0)
(-0.0715121 0.00135324 0)
(-0.0745834 0.00341872 0)
(-0.0778596 0.0053456 0)
(-0.0814336 0.00711441 0)
(-0.085304 0.0087064 0)
(-0.0894414 0.0100759 0)
(-0.0937961 0.0111839 0)
(-0.0983009 0.0120115 0)
(-0.102874 0.0125614 0)
(-0.107421 0.0128505 0)
(-0.111843 0.012902 0)
(-0.116045 0.0127392 0)
(-0.119942 0.0123836 0)
(-0.123467 0.0118536 0)
(-0.126576 0.0111676 0)
(-0.129246 0.0103458 0)
(-0.131477 0.00941362 0)
(-0.133287 0.00840248 0)
(-0.134708 0.00734909 0)
(-0.135784 0.00629302 0)
(-0.136566 0.00527301 0)
(-0.137105 0.00432338 0)
(-0.137454 0.00347359 0)
(-0.137663 0.00274694 0)
(-0.137782 0.00215849 0)
(-0.137852 0.00171529 0)
(-0.137909 0.00141779 0)
(-0.137984 0.00126165 0)
(-0.138099 0.00124008 0)
(-0.138269 0.00134455 0)
(-0.138509 0.0015652 0)
(-0.138826 0.00189184 0)
(-0.139229 0.00231278 0)
(-0.139719 0.00281494 0)
(-0.140297 0.00338372 0)
(-0.140962 0.00400403 0)
(-0.141709 0.00466043 0)
(-0.14253 0.00533756 0)
(-0.143417 0.00602011 0)
(-0.144358 0.00669264 0)
(-0.145338 0.00734069 0)
(-0.146343 0.00795067 0)
(-0.147357 0.00851055 0)
(-0.148362 0.00900992 0)
(-0.149343 0.00944031 0)
(-0.150282 0.00979487 0)
(-0.151164 0.0100691 0)
(-0.151973 0.0102606 0)
(-0.152698 0.010369 0)
(-0.153328 0.0103954 0)
(-0.153853 0.0103418 0)
(-0.154267 0.0102111 0)
(-0.154565 0.0100064 0)
(-0.154745 0.00973011 0)
(-0.154805 0.00938305 0)
(-0.154747 0.00896376 0)
(-0.154571 0.00846776 0)
(-0.154279 0.00788648 0)
(-0.15387 0.0072079 0)
(-0.153343 0.00641508 0)
(-0.152697 0.0054836 0)
(-0.151929 0.00437469 0)
(-0.151034 0.00302247 0)
(-0.149979 0.00132027 0)
(-0.14872 -0.000838375 0)
(-0.147399 -0.00354806 0)
(-0.145773 -0.0069551 0)
(-0.143615 -0.0113026 0)
(-0.140581 -0.0168959 0)
(-0.136466 -0.0240703 0)
(-0.131043 -0.0327549 0)
(-0.123581 -0.0429625 0)
(-0.113577 -0.0554766 0)
(-0.100844 -0.0685499 0)
(-0.0851246 -0.0803511 0)
(-0.0666526 -0.087182 0)
(-0.0460045 -0.0827593 0)
(-0.024955 -0.0565361 0)
(-0.00220648 0.00558932 0)
(-0.00536069 0.0504446 0)
(-0.0102017 0.0177914 0)
(-0.0132335 0.0010988 0)
(-0.0144732 -0.00404327 0)
(-0.0147905 -0.00484736 0)
(-0.0147214 -0.00443091 0)
(-0.0144836 -0.00377719 0)
(-0.0141782 -0.0031582 0)
(-0.0138528 -0.00263321 0)
(-0.0135317 -0.00219987 0)
(-0.0132276 -0.00184461 0)
(-0.0129466 -0.00155251 0)
(-0.0126911 -0.00131082 0)
(-0.0124614 -0.00110932 0)
(-0.0122566 -0.000939983 0)
(-0.0120753 -0.000796497 0)
(-0.0119159 -0.000673927 0)
(-0.0117768 -0.000568352 0)
(-0.0116563 -0.000476738 0)
(-0.0115529 -0.000396601 0)
(-0.0114651 -0.000326044 0)
(-0.0113917 -0.00026343 0)
(-0.0113316 -0.000207494 0)
(-0.0112835 -0.00015715 0)
(-0.0112468 -0.00011156 0)
(-0.0112205 -6.99369e-05 0)
(-0.0112044 -3.1481e-05 0)
(-0.0112 4.58114e-06 0)
(-0.0112039 3.66103e-05 0)
(-0.0112129 6.592e-05 0)
(-0.0112293 9.3666e-05 0)
(-0.011253 0.000120051 0)
(-0.0112837 0.000145198 0)
(-0.0113211 0.000169303 0)
(-0.0113652 0.000192509 0)
(-0.0114156 0.000215012 0)
(-0.0114724 0.000236943 0)
(-0.0115353 0.000258449 0)
(-0.0116044 0.000279662 0)
(-0.0116796 0.000300677 0)
(-0.0117607 0.00032163 0)
(-0.011848 0.000342602 0)
(-0.0119413 0.000363679 0)
(-0.0120408 0.000384978 0)
(-0.0121465 0.000406533 0)
(-0.0122584 0.000428517 0)
(-0.0123768 0.00045094 0)
(-0.0125017 0.000473915 0)
(-0.0126333 0.000497549 0)
(-0.0127717 0.000521888 0)
(-0.0129174 0.000547069 0)
(-0.0130703 0.000573159 0)
(-0.0132309 0.000600254 0)
(-0.0133994 0.000628471 0)
(-0.0135761 0.000657895 0)
(-0.0137614 0.000688657 0)
(-0.0139556 0.000720859 0)
(-0.0141592 0.000754672 0)
(-0.0143727 0.000790189 0)
(-0.0145966 0.000827578 0)
(-0.0148314 0.00086702 0)
(-0.0150777 0.000908642 0)
(-0.0153361 0.000952674 0)
(-0.0156075 0.00099933 0)
(-0.0158925 0.0010488 0)
(-0.016192 0.00110136 0)
(-0.0165069 0.0011573 0)
(-0.0168383 0.00121686 0)
(-0.0171871 0.00128039 0)
(-0.0175546 0.00134827 0)
(-0.0179423 0.00142093 0)
(-0.0183514 0.00149876 0)
(-0.0187835 0.00158221 0)
(-0.0192406 0.00167187 0)
(-0.0197244 0.00176838 0)
(-0.0202371 0.00187243 0)
(-0.0207812 0.00198473 0)
(-0.0213591 0.00210619 0)
(-0.021974 0.00223774 0)
(-0.022629 0.00238061 0)
(-0.023328 0.002536 0)
(-0.0240752 0.00270543 0)
(-0.0248752 0.00289063 0)
(-0.0257337 0.00309367 0)
(-0.0266568 0.00331698 0)
(-0.0276519 0.00356355 0)
(-0.0287275 0.00383704 0)
(-0.0298937 0.00414205 0)
(-0.0311628 0.00448451 0)
(-0.0325495 0.00487228 0)
(-0.0340724 0.00531577 0)
(-0.0357546 0.00582869 0)
(-0.0376245 0.00642824 0)
(-0.0397172 0.0071351 0)
(-0.0420725 0.00796773 0)
(-0.04473 0.00893327 0)
(-0.0477193 0.0100124 0)
(-0.0510427 0.0111382 0)
(-0.0546572 0.0121841 0)
(-0.05846 0.0129675 0)
(-0.0622875 0.0132817 0)
(-0.065934 0.0129452 0)
(-0.0691859 0.0118558 0)
(-0.0718621 0.0100248 0)
(-0.0738511 0.00758479 0)
(-0.0751341 0.00476455 0)
(-0.0757902 0.00183638 0)
(-0.0759796 -0.000972714 0)
(-0.0758869 -0.003407 0)
(-0.0756897 -0.00530509 0)
(-0.0755183 -0.00663009 0)
(-0.0754599 -0.00742185 0)
(-0.0755751 -0.00774455 0)
(-0.0759114 -0.00765959 0)
(-0.0765137 -0.00721184 0)
(-0.0774296 -0.00642559 0)
(-0.0787089 -0.00530784 0)
(-0.0803931 -0.00385163 0)
(-0.0825046 -0.00205684 0)
(-0.0850693 3.37208e-05 0)
(-0.0879624 0.00227547 0)
(-0.0908324 0.00449169 0)
(-0.0938487 0.0066694 0)
(-0.0970647 0.00879885 0)
(-0.100463 0.01081 0)
(-0.104003 0.0126169 0)
(-0.107638 0.0141473 0)
(-0.111312 0.0153505 0)
(-0.114963 0.016199 0)
(-0.118518 0.0166873 0)
(-0.121903 0.0168276 0)
(-0.125039 0.0166444 0)
(-0.127855 0.0161695 0)
(-0.130291 0.0154384 0)
(-0.132304 0.0144888 0)
(-0.133873 0.0133608 0)
(-0.134996 0.0120964 0)
(-0.135698 0.0107413 0)
(-0.136018 0.00934374 0)
(-0.136014 0.00795337 0)
(-0.135753 0.00661929 0)
(-0.135307 0.00538516 0)
(-0.134746 0.00428226 0)
(-0.134132 0.00333492 0)
(-0.133523 0.00256 0)
(-0.132965 0.00196422 0)
(-0.132494 0.00154545 0)
(-0.132132 0.00129609 0)
(-0.131888 0.0012046 0)
(-0.131762 0.00125843 0)
(-0.131747 0.00144365 0)
(-0.131833 0.00174607 0)
(-0.132008 0.00215224 0)
(-0.132261 0.00264853 0)
(-0.132579 0.00322037 0)
(-0.132949 0.00385212 0)
(-0.133358 0.00452753 0)
(-0.133792 0.00522985 0)
(-0.134239 0.00594185 0)
(-0.134686 0.00664701 0)
(-0.135117 0.00732887 0)
(-0.135521 0.00797251 0)
(-0.135884 0.00856401 0)
(-0.136193 0.00909118 0)
(-0.136436 0.0095442 0)
(-0.136604 0.0099152 0)
(-0.136687 0.0101986 0)
(-0.136677 0.0103914 0)
(-0.136569 0.0104929 0)
(-0.136359 0.0105046 0)
(-0.136047 0.0104298 0)
(-0.135632 0.0102728 0)
(-0.135119 0.0100386 0)
(-0.134511 0.00973212 0)
(-0.133817 0.00935749 0)
(-0.133046 0.00891691 0)
(-0.132207 0.0084096 0)
(-0.131312 0.00783116 0)
(-0.130374 0.00717323 0)
(-0.129403 0.00642355 0)
(-0.128411 0.00556554 0)
(-0.127414 0.00457518 0)
(-0.126428 0.00341235 0)
(-0.125465 0.00200287 0)
(-0.124533 0.00023177 0)
(-0.123665 -0.00199731 0)
(-0.122926 -0.00484639 0)
(-0.122141 -0.00855968 0)
(-0.121229 -0.0133657 0)
(-0.120046 -0.0196021 0)
(-0.118243 -0.0277693 0)
(-0.115429 -0.0380367 0)
(-0.111144 -0.0504325 0)
(-0.104871 -0.0649544 0)
(-0.0960444 -0.0806888 0)
(-0.0840185 -0.0956017 0)
(-0.0685835 -0.105694 0)
(-0.0497474 -0.103942 0)
(-0.0286227 -0.078436 0)
(-0.00841611 -0.0135868 0)
(-0.00457872 0.0573797 0)
(-0.00922292 0.0223739 0)
(-0.0122323 0.00324277 0)
(-0.0135801 -0.00319904 0)
(-0.0140981 -0.0046132 0)
(-0.0142278 -0.00447048 0)
(-0.0141707 -0.00394178 0)
(-0.0140238 -0.00337855 0)
(-0.0138335 -0.00287399 0)
(-0.0136252 -0.00244193 0)
(-0.0134143 -0.00207724 0)
(-0.0132098 -0.00176984 0)
(-0.0130169 -0.00150993 0)
(-0.0128385 -0.00128908 0)
(-0.0126757 -0.00110032 0)
(-0.0125289 -0.000938 0)
(-0.0123979 -0.000797489 0)
(-0.0122821 -0.000675076 0)
(-0.0121808 -0.000567719 0)
(-0.0120933 -0.000472993 0)
(-0.0120186 -0.000388868 0)
(-0.0119561 -0.000313737 0)
(-0.0119049 -0.000246218 0)
(-0.0118643 -0.000185257 0)
(-0.0118335 -0.000129955 0)
(-0.0118121 -7.95429e-05 0)
(-0.0118002 -3.32762e-05 0)
(-0.0117987 9.52999e-06 0)
(-0.0118051 5.0865e-05 0)
(-0.0118167 8.87801e-05 0)
(-0.0118349 0.000124427 0)
(-0.0118598 0.000158222 0)
(-0.0118914 0.000190384 0)
(-0.0119295 0.00022126 0)
(-0.0119738 0.000251033 0)
(-0.0120245 0.000279966 0)
(-0.0120812 0.000308194 0)
(-0.0121439 0.000335938 0)
(-0.0122128 0.000363324 0)
(-0.0122876 0.000390496 0)
(-0.0123685 0.000417578 0)
(-0.0124554 0.000444703 0)
(-0.0125482 0.00047198 0)
(-0.0126473 0.000499546 0)
(-0.0127525 0.000527492 0)
(-0.0128642 0.000555926 0)
(-0.0129822 0.000584986 0)
(-0.0131068 0.000614718 0)
(-0.0132383 0.000645318 0)
(-0.0133766 0.000676822 0)
(-0.0135222 0.000709377 0)
(-0.0136752 0.000743104 0)
(-0.0138358 0.000778134 0)
(-0.0140045 0.000814601 0)
(-0.0141816 0.000852625 0)
(-0.0143673 0.000892367 0)
(-0.0145621 0.000933976 0)
(-0.0147664 0.000977606 0)
(-0.0149807 0.00102348 0)
(-0.0152056 0.00107172 0)
(-0.0154415 0.00112262 0)
(-0.0156891 0.00117638 0)
(-0.015949 0.0012332 0)
(-0.016222 0.00129341 0)
(-0.0165088 0.00135728 0)
(-0.0168102 0.0014251 0)
(-0.0171274 0.00149731 0)
(-0.0174613 0.00157422 0)
(-0.0178128 0.00165627 0)
(-0.0181833 0.00174392 0)
(-0.0185742 0.00183775 0)
(-0.0189869 0.00193833 0)
(-0.019423 0.00204628 0)
(-0.0198843 0.00216228 0)
(-0.0203728 0.00228723 0)
(-0.0208907 0.00242199 0)
(-0.0214404 0.00256764 0)
(-0.0220247 0.00272532 0)
(-0.0226465 0.00289631 0)
(-0.0233092 0.00308215 0)
(-0.0240168 0.00328465 0)
(-0.0247734 0.00350584 0)
(-0.0255841 0.00374805 0)
(-0.0264544 0.00401415 0)
(-0.027391 0.00430756 0)
(-0.0284013 0.00463243 0)
(-0.0294942 0.00499388 0)
(-0.0306801 0.0053984 0)
(-0.0319714 0.00585436 0)
(-0.0333836 0.00637283 0)
(-0.0349349 0.00696824 0)
(-0.0366482 0.00765933 0)
(-0.038551 0.00846878 0)
(-0.0406754 0.009422 0)
(-0.0430563 0.0105381 0)
(-0.045726 0.0118171 0)
(-0.0487047 0.0132188 0)
(-0.051987 0.0146395 0)
(-0.0555266 0.0159021 0)
(-0.0592276 0.0167696 0)
(-0.0629452 0.0169921 0)
(-0.066504 0.016371 0)
(-0.0697286 0.0148225 0)
(-0.0724823 0.0124129 0)
(-0.0746978 0.00935504 0)
(-0.0763919 0.00596745 0)
(-0.0776601 0.00259868 0)
(-0.0786546 -0.000474737 0)
(-0.07951 -0.0030116 0)
(-0.0803576 -0.00488878 0)
(-0.0812742 -0.0061033 0)
(-0.0823228 -0.0067247 0)
(-0.0835475 -0.006832 0)
(-0.0849826 -0.00649179 0)
(-0.086657 -0.00575058 0)