/*--------------------------------*- C++ -*----------------------------------*\
  =========                 |
  \\      /  F ield         | OpenFOAM: The Open Source CFD Toolbox
   \\    /   O peration     | Website:  https://openfoam.org
    \\  /    A nd           | Version:  11
     \\/     M anipulation  |
\*---------------------------------------------------------------------------*/
FoamFile
{
    format      ascii;
    class       surfaceScalarField;
    location    "18";
    object      phi;
}
// * * * * * * * * * * * * * * * * * * * * * * * * * * * * * * * * * * * * * //

dimensions      [1 0 -1 0 0 0 0];

internalField   nonuniform List<scalar> 
79600
(
-8.98076e-06
8.98072e-06
-9.38379e-06
4.02926e-07
-7.62634e-06
-1.75764e-06
-6.02649e-06
-1.60007e-06
-4.9579e-06
-1.06881e-06
-4.3471e-06
-6.11013e-07
-4.06444e-06
-2.82879e-07
-4.00869e-06
-5.59639e-08
-4.11133e-06
1.02426e-07
-4.32417e-06
2.12621e-07
-4.61225e-06
2.87869e-07
-4.95593e-06
3.43468e-07
-5.34371e-06
3.87565e-07
-5.76813e-06
4.24203e-07
-6.22455e-06
4.56212e-07
-6.71027e-06
4.85493e-07
-7.22382e-06
5.13337e-07
-7.7647e-06
5.40641e-07
-8.33255e-06
5.67601e-07
-8.9262e-06
5.9334e-07
-9.54221e-06
6.1562e-07
-1.01732e-05
6.30458e-07
-1.08061e-05
6.32103e-07
-1.14209e-05
6.1375e-07
-1.19916e-05
5.69152e-07
-1.24885e-05
4.94782e-07
-1.28829e-05
3.91716e-07
-1.31527e-05
2.66436e-07
-1.32869e-05
1.30119e-07
-1.32927e-05
8.46227e-10
-1.31696e-05
-1.28891e-07
-1.29267e-05
-2.49491e-07
-1.25752e-05
-3.58954e-07
-1.21298e-05
-4.53305e-07
-1.16095e-05
-5.28631e-07
-1.10347e-05
-5.83186e-07
-1.04258e-05
-6.17249e-07
-9.80133e-06
-6.32601e-07
-9.1774e-06
-6.31776e-07
-8.56741e-06
-6.17466e-07
-7.98234e-06
-5.92141e-07
-7.43111e-06
-5.57879e-07
-6.92101e-06
-5.16331e-07
-6.45804e-06
-4.68778e-07
-6.04723e-06
-4.16225e-07
-5.69278e-06
-3.59483e-07
-5.3982e-06
-2.99248e-07
-5.16642e-06
-2.36112e-07
-4.99983e-06
-1.70599e-07
-4.90035e-06
-1.03195e-07
-4.86893e-06
-3.48514e-08
-4.90511e-06
3.2969e-08
-5.01834e-06
1.1018e-07
-5.2027e-06
1.81455e-07
-5.45035e-06
2.44886e-07
-5.75074e-06
2.97753e-07
-6.09116e-06
3.37879e-07
-6.45756e-06
3.63956e-07
-6.83575e-06
3.75812e-07
-7.21247e-06
3.744e-07
-7.57611e-06
3.61336e-07
-7.91725e-06
3.38851e-07
-8.22914e-06
3.09581e-07
-8.50779e-06
2.76302e-07
-8.75188e-06
2.41679e-07
-8.96237e-06
2.08015e-07
-9.14203e-06
1.77102e-07
-9.29485e-06
1.50166e-07
-9.42543e-06
1.27845e-07
-9.53849e-06
1.10239e-07
-9.63845e-06
9.70529e-08
-9.72914e-06
8.77256e-08
-9.81371e-06
8.15603e-08
-9.8946e-06
7.78325e-08
-9.97354e-06
7.58589e-08
-1.00517e-05
7.50532e-08
-1.01297e-05
7.49501e-08
-1.02079e-05
7.51799e-08
-1.02864e-05
7.5434e-08
-1.03648e-05
7.54329e-08
-1.04426e-05
7.48929e-08
-1.05189e-05
7.35e-08
-1.05925e-05
7.08782e-08
-1.06617e-05
6.65444e-08
-1.07241e-05
5.9874e-08
-1.07767e-05
5.01597e-08
-1.08158e-05
3.6849e-08
-1.0838e-05
2.00467e-08
-1.0842e-05
1.88031e-09
-1.08215e-05
-2.23523e-08
-1.07702e-05
-5.30777e-08
-1.06795e-05
-9.23405e-08
-1.05394e-05
-1.4152e-07
-1.03399e-05
-2.00853e-07
-1.00713e-05
-2.69806e-07
-9.7253e-06
-3.4703e-07
-9.29598e-06
-4.30245e-07
-8.78065e-06
-5.16135e-07
-8.18105e-06
-6.00287e-07
-7.50444e-06
-6.77214e-07
-6.7645e-06
-7.4046e-07
-5.98219e-06
-7.82777e-07
-5.18577e-06
-7.96838e-07
-4.41013e-06
-7.76024e-07
-3.69538e-06
-7.1512e-07
-3.08363e-06
-6.12114e-07
-2.61331e-06
-4.70673e-07
-2.31157e-06
-3.02097e-07
-2.1885e-06
-1.23424e-07
-2.25437e-06
6.55034e-08
-2.54722e-06
2.92486e-07
-3.01359e-06
4.65992e-07
-3.5948e-06
5.80839e-07
-4.23781e-06
6.42642e-07
-4.91276e-06
6.74618e-07
-5.60889e-06
6.95834e-07
-6.32688e-06
7.17737e-07
-7.07209e-06
7.45021e-07
-7.84654e-06
7.74344e-07
-8.64289e-06
7.96314e-07
-9.44229e-06
7.99443e-07
-1.02166e-05
7.74412e-07
-1.09335e-05
7.17103e-07
-1.15627e-05
6.29553e-07
-1.20814e-05
5.19e-07
-1.24769e-05
3.95933e-07
-1.27485e-05
2.7205e-07
-1.29065e-05
1.58571e-07
-1.2971e-05
6.49561e-08
-1.29688e-05
-1.65777e-09
-1.2912e-05
-5.62536e-08
-1.28124e-05
-9.90377e-08
-1.26748e-05
-1.36998e-07
-1.25147e-05
-1.59395e-07
-1.23633e-05
-1.50807e-07
-1.2281e-05
-8.17364e-08
-1.23544e-05
7.40651e-08
-1.26428e-05
2.88964e-07
-1.31598e-05
5.17757e-07
-1.38954e-05
7.36347e-07
-1.48305e-05
9.36033e-07
-1.59388e-05
1.10931e-06
-1.71844e-05
1.24667e-06
-1.85209e-05
1.33779e-06
-1.98943e-05
1.37475e-06
-2.1248e-05
1.35515e-06
-2.25282e-05
1.28172e-06
-2.36891e-05
1.16244e-06
-2.46972e-05
1.00958e-06
-2.55333e-05
8.37569e-07
-2.61927e-05
6.60816e-07
-2.66837e-05
4.92297e-07
-2.70245e-05
3.42087e-07
-2.72405e-05
2.17141e-07
-2.7362e-05
1.225e-07
-2.74207e-05
5.97741e-08
-2.74492e-05
2.94197e-08
-2.74788e-05
3.05126e-08
-2.75382e-05
6.01811e-08
-2.76498e-05
1.12352e-07
-2.78329e-05
1.8384e-07
-2.81024e-05
2.70233e-07
-2.84695e-05
3.67703e-07
-2.8943e-05
4.74122e-07
-2.95306e-05
5.88145e-07
-3.02386e-05
7.08481e-07
-3.10719e-05
8.33783e-07
-3.20343e-05
9.62724e-07
-3.31281e-05
1.09405e-06
-3.43545e-05
1.22662e-06
-3.57137e-05
1.35932e-06
-3.72048e-05
1.49105e-06
-3.88255e-05
1.62065e-06
-4.05725e-05
1.7468e-06
-4.24407e-05
1.86795e-06
-4.44232e-05
1.98226e-06
-4.6511e-05
2.0875e-06
-4.86922e-05
2.18098e-06
-5.09519e-05
2.25949e-06
-5.32712e-05
2.31914e-06
-5.56266e-05
2.35527e-06
-5.79888e-05
2.36211e-06
-6.03214e-05
2.33246e-06
-6.25786e-05
2.25709e-06
-6.47026e-05
2.12392e-06
-6.66193e-05
1.91651e-06
-6.82319e-05
1.6124e-06
-6.94166e-05
1.18444e-06
-7.00187e-05
6.01792e-07
-6.97999e-05
-2.19266e-07
-6.85235e-05
-1.27688e-06
-6.5868e-05
-2.65601e-06
-6.15196e-05
-4.34901e-06
-5.5171e-05
-6.34921e-06
-4.65672e-05
-8.60455e-06
-3.56134e-05
-1.09544e-05
-2.26525e-05
-1.29616e-05
-9.19412e-06
-1.34589e-05
6.44143e-07
-9.83855e-06
6.43407e-07
-7.26185e-06
1.62425e-05
-9.92901e-06
3.06991e-06
-9.93188e-06
-1.75502e-06
-9.32664e-06
-2.20556e-06
-8.79314e-06
-1.60255e-06
-8.47896e-06
-9.25422e-07
-8.39066e-06
-3.71395e-07
-8.50735e-06
6.05094e-08
-8.79005e-06
3.84903e-07
-9.20851e-06
6.30865e-07
-9.74312e-06
8.22273e-07
-1.03791e-05
9.79212e-07
-1.11068e-05
1.11504e-06
-1.1921e-05
1.2382e-06
-1.28201e-05
1.35506e-06
-1.38054e-05
1.47055e-06
-1.48809e-05
1.58859e-06
-1.60521e-05
1.71146e-06
-1.73231e-05
1.83815e-06
-1.86928e-05
1.96223e-06
-2.01487e-05
2.07028e-06
-2.16622e-05
2.14201e-06
-2.31861e-05
2.15317e-06
-2.46573e-05
2.08106e-06
-2.60046e-05
1.91119e-06
-2.71586e-05
1.64216e-06
-2.8062e-05
1.28722e-06
-2.86766e-05
8.71999e-07
-2.89867e-05
4.3005e-07
-2.89938e-05
-3.1427e-09
-2.87284e-05
-4.06227e-07
-2.82255e-05
-7.64777e-07
-2.75298e-05
-1.06669e-06
-2.66929e-05
-1.30162e-06
-2.57644e-05
-1.46761e-06
-2.47871e-05
-1.56983e-06
-2.37952e-05
-1.61748e-06
-2.28142e-05
-1.62094e-06
-2.18625e-05
-1.58992e-06
-2.0953e-05
-1.53252e-06
-2.0095e-05
-1.455e-06
-1.92952e-05
-1.36188e-06
-1.85588e-05
-1.2563e-06
-1.78904e-05
-1.14036e-06
-1.72939e-05
-1.01548e-06
-1.6773e-05
-8.82676e-07
-1.63313e-05
-7.42845e-07
-1.59723e-05
-5.96774e-07
-1.56991e-05
-4.45154e-07
-1.5515e-05
-2.88358e-07
-1.54249e-05
-1.25894e-07
-1.54404e-05
4.78453e-08
-1.55689e-05
2.38045e-07
-1.58154e-05
4.27278e-07
-1.61734e-05
6.02386e-07
-1.66331e-05
7.56823e-07
-1.71804e-05
8.84467e-07
-1.77989e-05
9.81681e-07
-1.84707e-05
1.04666e-06
-1.91774e-05
1.07996e-06
-1.99016e-05
1.08411e-06
-2.06279e-05
1.06337e-06
-2.13434e-05
1.02314e-06
-2.20386e-05
9.69285e-07
-2.27071e-05
9.07557e-07
-2.33449e-05
8.43046e-07
-2.39506e-05
7.7981e-07
-2.45242e-05
7.20703e-07
-2.50669e-05
6.67376e-07
-2.55804e-05
6.20413e-07
-2.60662e-05
5.79601e-07
-2.65258e-05
5.44211e-07
-2.69607e-05
5.13242e-07
-2.73715e-05
4.85637e-07
-2.77589e-05
4.60412e-07
-2.81234e-05
4.36731e-07
-2.8465e-05
4.13926e-07
-2.87837e-05
3.91446e-07
-2.90795e-05
3.68811e-07
-2.93518e-05
3.45555e-07
-2.96001e-05
3.21148e-07
-2.98235e-05
2.94954e-07
-3.00205e-05
2.66191e-07
-3.01895e-05
2.33867e-07
-3.03279e-05
1.96733e-07
-3.04325e-05
1.53383e-07
-3.04994e-05
1.02543e-07
-3.05246e-05
4.41324e-08
-3.05053e-05
-1.84316e-08
-3.04289e-05
-9.96321e-08
-3.02838e-05
-1.98876e-07
-3.00565e-05
-3.20297e-07
-2.97348e-05
-4.63798e-07
-2.93088e-05
-6.27364e-07
-2.87717e-05
-8.0739e-07
-2.81204e-05
-9.98696e-07
-2.73565e-05
-1.19451e-06
-2.64866e-05
-1.38649e-06
-2.55225e-05
-1.56473e-06
-2.44821e-05
-1.71806e-06
-2.33888e-05
-1.83418e-06
-2.22718e-05
-1.9002e-06
-2.11657e-05
-1.90346e-06
-2.01097e-05
-1.83265e-06
-1.9146e-05
-1.67932e-06
-1.8319e-05
-1.43975e-06
-1.7673e-05
-1.11723e-06
-1.72554e-05
-7.20305e-07
-1.71364e-05
-2.42982e-07
-1.74075e-05
3.36037e-07
-1.80628e-05
9.47417e-07
-1.90713e-05
1.47417e-06
-2.03834e-05
1.89275e-06
-2.19495e-05
2.20866e-06
-2.3714e-05
2.43915e-06
-2.56189e-05
2.60097e-06
-2.76056e-05
2.70476e-06
-2.96138e-05
2.75375e-06
-3.15844e-05
2.74553e-06
-3.34632e-05
2.67593e-06
-3.52046e-05
2.5417e-06
-3.67726e-05
2.34326e-06
-3.81413e-05
2.08677e-06
-3.92953e-05
1.78452e-06
-4.02293e-05
1.45404e-06
-4.09486e-05
1.11615e-06
-4.14683e-05
7.92726e-07
-4.18132e-05
5.04433e-07
-4.20162e-05
2.68844e-07
-4.21156e-05
9.86542e-08
-4.21709e-05
-6.67557e-11
-4.22415e-05
-2.76356e-08
-4.23853e-05
7.78113e-09
-4.26705e-05
1.26691e-07
-4.31304e-05
3.10121e-07
-4.37713e-05
5.60262e-07
-4.45728e-05
8.76682e-07
-4.55341e-05
1.25145e-06
-4.6677e-05
1.66204e-06
-4.80106e-05
2.0714e-06
-4.95183e-05
2.44542e-06
-5.11636e-05
2.75641e-06
-5.28967e-05
2.98165e-06
-5.46603e-05
3.10341e-06
-5.63945e-05
3.11101e-06
-5.80407e-05
3.00339e-06
-5.95467e-05
2.78978e-06
-6.08711e-05
2.48869e-06
-6.19856e-05
2.12584e-06
-6.28769e-05
1.73043e-06
-6.35459e-05
1.33112e-06
-6.40064e-05
9.54031e-07
-6.42833e-05
6.19915e-07
-6.44074e-05
3.42133e-07
-6.44159e-05
1.31655e-07
-6.43473e-05
-8.35655e-09
-6.42371e-05
-8.03846e-08
-6.41142e-05
-9.21187e-08
-6.4011e-05
-4.28544e-08
-6.39581e-05
5.94983e-08
-6.39745e-05
2.00145e-07
-6.40727e-05
3.6834e-07
-6.42621e-05
5.56946e-07
-6.4549e-05
7.6085e-07
-6.49376e-05
9.7651e-07
-6.54299e-05
1.20046e-06
-6.60258e-05
1.42928e-06
-6.67232e-05
1.65971e-06
-6.75185e-05
1.88878e-06
-6.84062e-05
2.11383e-06
-6.93799e-05
2.33244e-06
-7.04317e-05
2.54234e-06
-7.15529e-05
2.74123e-06
-7.27333e-05
2.92665e-06
-7.39616e-05
3.09576e-06
-7.52251e-05
3.24524e-06
-7.65091e-05
3.37108e-06
-7.7797e-05
3.46845e-06
-7.90693e-05
3.53148e-06
-8.03035e-05
3.55305e-06
-8.1473e-05
3.52441e-06
-8.25459e-05
3.4348e-06
-8.34844e-05
3.27062e-06
-8.42421e-05
3.01451e-06
-8.47622e-05
2.64368e-06
-8.4974e-05
2.12783e-06
-8.47883e-05
1.42626e-06
-8.40785e-05
4.7402e-07
-8.27265e-05
-7.50995e-07
-8.06237e-05
-2.32283e-06
-7.76035e-05
-4.29799e-06
-7.34961e-05
-6.7643e-06
-6.80526e-05
-9.79361e-06
-6.09985e-05
-1.34043e-05
-5.20944e-05
-1.75098e-05
-4.12523e-05
-2.17977e-05
-2.87549e-05
-2.546e-05
-1.55639e-05
-2.66507e-05
-3.806e-06
-2.1597e-05
-3.16286e-06
-5.88981e-06
2.21322e-05
-8.98742e-06
6.16723e-06
-9.99025e-06
-7.52534e-07
-1.02575e-05
-1.93863e-06
-1.03676e-05
-1.49263e-06
-1.05129e-05
-7.80358e-07
-1.07607e-05
-1.23857e-07
-1.11208e-05
4.20417e-07
-1.15957e-05
8.59549e-07
-1.2187e-05
1.22196e-06
-1.28948e-05
1.52982e-06
-1.37177e-05
1.80189e-06
-1.46558e-05
2.05295e-06
-1.57129e-05
2.29506e-06
-1.68963e-05
2.53815e-06
-1.82162e-05
2.7901e-06
-1.96838e-05
3.05569e-06
-2.13069e-05
3.33383e-06
-2.30834e-05
3.61324e-06
-2.49924e-05
3.86901e-06
-2.69886e-05
4.06294e-06
-2.90011e-05
4.14922e-06
-3.09398e-05
4.08462e-06
-3.27081e-05
3.83996e-06
-3.4217e-05
3.40847e-06
-3.53969e-05
2.80848e-06
-3.62051e-05
2.08028e-06
-3.66282e-05
1.27886e-06
-3.66802e-05
4.65087e-07
-3.63934e-05
-3.07052e-07
-3.58263e-05
-9.89755e-07
-3.50549e-05
-1.55107e-06
-3.41605e-05
-1.97402e-06
-3.32102e-05
-2.26301e-06
-3.22523e-05
-2.43473e-06
-3.13187e-05
-2.51098e-06
-3.04287e-05
-2.51357e-06
-2.95932e-05
-2.46139e-06
-2.88177e-05
-2.36934e-06
-2.81051e-05
-2.24829e-06
-2.74568e-05
-2.10565e-06
-2.68744e-05
-1.94619e-06
-2.63592e-05
-1.77276e-06
-2.59136e-05
-1.58692e-06
-2.55401e-05
-1.38953e-06
-2.5242e-05
-1.18088e-06
-2.50237e-05
-9.61002e-07
-2.48908e-05
-7.29272e-07
-2.48511e-05
-4.84127e-07
-2.49173e-05
-2.21299e-07
-2.51116e-05
6.95484e-08
-2.54426e-05
3.79998e-07
-2.58914e-05
6.88178e-07
-2.64436e-05
9.80917e-07
-2.70894e-05
1.24952e-06
-2.78172e-05
1.48581e-06
-2.86148e-05
1.68295e-06
-2.94691e-05
1.83636e-06
-3.03667e-05
1.94412e-06
-3.12945e-05
2.00713e-06
-3.22404e-05
2.02879e-06
-3.31933e-05
2.01451e-06
-3.41434e-05
1.97094e-06
-3.5082e-05
1.90525e-06
-3.60017e-05
1.82431e-06
-3.6896e-05
1.73425e-06
-3.77594e-05
1.64e-06
-3.85871e-05
1.54524e-06
-3.93752e-05
1.4524e-06
-4.01206e-05
1.36286e-06
-4.08209e-05
1.27722e-06
-4.14747e-05
1.19551e-06
-4.20812e-05
1.11745e-06
-4.26402e-05
1.04257e-06
-4.3152e-05
9.70353e-07
-4.36173e-05
9.00299e-07
-4.40367e-05
8.31919e-07
-4.44113e-05
7.64724e-07
-4.47419e-05
6.98176e-07
-4.5029e-05
6.3164e-07
-4.52731e-05
5.64326e-07
-4.54742e-05
4.95236e-07
-4.56318e-05
4.2313e-07
-4.5745e-05
3.46447e-07
-4.5812e-05
2.63174e-07
-4.583e-05
1.70951e-07
-4.57955e-05
6.777e-08
-4.57037e-05
-4.80398e-08
-4.55384e-05
-1.83963e-07
-4.52915e-05
-3.46642e-07
-4.49573e-05
-5.33266e-07
-4.45349e-05
-7.42974e-07
-4.40249e-05
-9.7396e-07
-4.343e-05
-1.22261e-06
-4.27544e-05
-1.48331e-06
-4.2005e-05
-1.74841e-06
-4.11918e-05
-2.00819e-06
-4.03279e-05
-2.25092e-06
-3.94303e-05
-2.46299e-06
-3.852e-05
-2.62907e-06
-3.76225e-05
-2.73249e-06
-3.67679e-05
-2.75573e-06
-3.5991e-05
-2.68128e-06
-3.53319e-05
-2.49268e-06
-3.4836e-05
-2.17618e-06
-3.4554e-05
-1.72275e-06
-3.45438e-05
-1.12826e-06
-3.48761e-05
-3.88718e-07
-3.55873e-05
4.67785e-07
-3.65959e-05
1.34449e-06
-3.78114e-05
2.16298e-06
-3.9247e-05
2.91006e-06
-4.09107e-05
3.55696e-06
-4.2784e-05
4.08283e-06
-4.48245e-05
4.48063e-06
-4.69741e-05
4.7518e-06
-4.91683e-05
4.9005e-06
-5.13434e-05
4.93049e-06
-5.34409e-05
4.84481e-06
-5.54104e-05
4.64737e-06
-5.72117e-05
4.34488e-06
-5.88151e-05
3.94865e-06
-6.0202e-05
3.47572e-06
-6.13645e-05
2.94894e-06
-6.23045e-05
2.39586e-06
-6.30332e-05
1.84668e-06
-6.35706e-05
1.33173e-06
-6.39437e-05
8.79173e-07
-6.41863e-05
5.12791e-07
-6.43369e-05
2.50681e-07
-6.44396e-05
1.039e-07
-6.45426e-05
7.65485e-08
-6.46982e-05
1.6465e-07
-6.49324e-05
3.62151e-07
-6.52798e-05
6.5886e-07
-6.57637e-05
1.04562e-06
-6.63955e-05
1.51017e-06
-6.7175e-05
2.03273e-06
-6.80921e-05
2.58108e-06
-6.91323e-05
3.11382e-06
-7.02728e-05
3.58845e-06
-7.148e-05
3.96631e-06
-7.27107e-05
4.21527e-06
-7.39165e-05
4.31217e-06
-7.5048e-05
4.24559e-06
-7.60599e-05
4.01832e-06
-7.69151e-05
3.64793e-06
-7.75882e-05
3.16455e-06
-7.80674e-05
2.60752e-06
-7.83556e-05
2.02086e-06
-7.8468e-05
1.44525e-06
-7.84292e-05
9.16676e-07
-7.82717e-05
4.63373e-07
-7.80258e-05
9.69157e-08
-7.7724e-05
-1.69879e-07
-7.74044e-05
-3.28156e-07
-7.70894e-05
-3.95902e-07
-7.68016e-05
-3.80833e-07
-7.65501e-05
-2.95371e-07
-7.63396e-05
-1.52236e-07
-7.6184e-05
4.33378e-08
-7.60827e-05
2.6583e-07
-7.60435e-05
5.16488e-07
-7.60673e-05
7.83384e-07
-7.61543e-05
1.06215e-06
-7.6303e-05
1.34788e-06
-7.65107e-05
1.63555e-06
-7.67727e-05
1.92038e-06
-7.70834e-05
2.19809e-06
-7.74359e-05
2.46495e-06
-7.78225e-05
2.71765e-06
-7.82346e-05
2.95318e-06
-7.86633e-05
3.16867e-06
-7.90989e-05
3.36111e-06
-7.95314e-05
3.52719e-06
-7.99502e-05
3.66301e-06
-8.03439e-05
3.76393e-06
-8.07006e-05
3.82433e-06
-8.10072e-05
3.83737e-06
-8.12495e-05
3.79465e-06
-8.14115e-05
3.68579e-06
-8.14751e-05
3.4978e-06
-8.14192e-05
3.21417e-06
-8.12188e-05
2.81356e-06
-8.08435e-05
2.2677e-06
-8.02543e-05
1.53795e-06
-7.93979e-05
5.68996e-07
-7.82459e-05
-6.7885e-07
-7.67399e-05
-2.258e-06
-7.4784e-05
-4.27986e-06
-7.22092e-05
-6.87395e-06
-6.88077e-05
-1.01671e-05
-6.43338e-05
-1.42689e-05
-5.85132e-05
-1.92264e-05
-5.10836e-05
-2.49409e-05
-4.18827e-05
-3.10001e-05
-3.09961e-05
-3.63482e-05
-1.89884e-05
-3.86597e-05
-7.44078e-06
-3.31456e-05
-1.0604e-05
-5.05906e-06
2.71909e-05
-8.15143e-06
9.25911e-06
-9.65765e-06
7.5325e-07
-1.0448e-05
-1.14862e-06
-1.10153e-05
-9.25629e-07
-1.1535e-05
-2.60831e-07
-1.20759e-05
4.16779e-07
-1.26665e-05
1.01077e-06
-1.33331e-05
1.52595e-06
-1.40924e-05
1.9811e-06
-1.49569e-05
2.394e-06
-1.59368e-05
2.78165e-06
-1.70439e-05
3.15979e-06
-1.82918e-05
3.5426e-06
-1.96962e-05
3.94214e-06
-2.12732e-05
4.3665e-06
-2.30343e-05
4.81583e-06
-2.49786e-05
5.27635e-06
-2.7083e-05
5.71471e-06
-2.92957e-05
6.07705e-06
-3.15355e-05
6.2958e-06
-3.36997e-05
6.30366e-06
-3.56779e-05
6.05031e-06
-3.73692e-05
5.51586e-06
-3.86956e-05
4.71697e-06
-3.96116e-05
3.70488e-06
-4.01089e-05
2.55683e-06
-4.02146e-05
1.36367e-06
-3.99856e-05
2.15865e-07
-3.95007e-05
-8.10696e-07
-3.88526e-05
-1.65381e-06
-3.813e-05
-2.28685e-06
-3.73979e-05
-2.7167e-06
-3.66981e-05
-2.97117e-06
-3.60533e-05
-3.08593e-06
-3.54736e-05
-3.09563e-06
-3.49613e-05
-3.02958e-06
-3.45151e-05
-2.91026e-06
-3.41328e-05
-2.75362e-06
-3.38123e-05
-2.57008e-06
-3.35529e-05
-2.36595e-06
-3.33548e-05
-2.14467e-06
-3.322e-05
-1.90765e-06
-3.31519e-05
-1.65478e-06
-3.31556e-05
-1.38522e-06
-3.32387e-05
-1.09692e-06
-3.34112e-05
-7.87362e-07
-3.3686e-05
-4.53035e-07
-3.40856e-05
-8.2912e-08
-3.46225e-05
3.17329e-07
-3.52661e-05
7.15096e-07
-3.59757e-05
1.09169e-06
-3.67338e-05
1.44856e-06
-3.75342e-05
1.78331e-06
-3.83721e-05
2.08919e-06
-3.92433e-05
2.35837e-06
-4.01434e-05
2.58384e-06
-4.10675e-05
2.76059e-06
-4.201e-05
2.88627e-06
-4.29652e-05
2.96131e-06
-4.39266e-05
2.98871e-06
-4.48875e-05
2.97353e-06
-4.58409e-05
2.9221e-06
-4.67795e-05
2.84136e-06
-4.76958e-05
2.73818e-06
-4.85828e-05
2.61883e-06
-4.94339e-05
2.48875e-06
-5.0243e-05
2.3523e-06
-5.10054e-05
2.21284e-06
-5.1717e-05
2.07282e-06
-5.23751e-05
1.93395e-06
-5.29782e-05
1.79737e-06
-5.35255e-05
1.66376e-06
-5.40172e-05
1.53347e-06
-5.44542e-05
1.40663e-06
-5.48376e-05
1.28314e-06
-5.51689e-05
1.16279e-06
-5.54497e-05
1.04514e-06
-5.56815e-05
9.29618e-07
-5.58655e-05
8.15404e-07
-5.60028e-05
7.01435e-07
-5.60941e-05
5.86356e-07
-5.61397e-05
4.68495e-07
-5.61392e-05
3.45814e-07
-5.60919e-05
2.15778e-07
-5.59963e-05
7.52504e-08
-5.58486e-05
-8.01064e-08
-5.56421e-05
-2.54612e-07
-5.53741e-05
-4.52186e-07
-5.50505e-05
-6.70517e-07
-5.46755e-05
-9.08563e-07
-5.42534e-05
-1.16537e-06
-5.37895e-05
-1.4384e-06
-5.32897e-05
-1.72289e-06
-5.27621e-05
-2.01163e-06
-5.22162e-05
-2.29495e-06
-5.16645e-05
-2.56077e-06
-5.11217e-05
-2.79464e-06
-5.06057e-05
-2.97998e-06
-5.01375e-05
-3.09834e-06
-4.97412e-05
-3.12992e-06
-4.94438e-05
-3.05432e-06
-4.92744e-05
-2.85185e-06
-4.92628e-05
-2.50541e-06
-4.94369e-05
-2.00304e-06
-4.98205e-05
-1.34002e-06
-5.04283e-05
-5.2092e-07
-5.12397e-05
4.22457e-07
-5.21804e-05
1.40861e-06
-5.32355e-05
2.39999e-06
-5.44505e-05
3.37868e-06
-5.5835e-05
4.29574e-06
-5.73802e-05
5.10358e-06
-5.90633e-05
5.76769e-06
-6.08482e-05
6.26766e-06
-6.26882e-05
6.59417e-06
-6.45304e-05
6.74538e-06
-6.63213e-05
6.7243e-06
-6.80114e-05
6.53788e-06
-6.95582e-05
6.19725e-06
-7.09288e-05
5.71867e-06
-7.21014e-05
5.12438e-06
-7.30655e-05
4.44286e-06
-7.38216e-05
3.70801e-06
-7.43804e-05
2.95741e-06
-7.47607e-05
2.22961e-06
-7.49879e-05
1.56128e-06
-7.50919e-05
9.85302e-07
-7.51053e-05
5.28063e-07
-7.50613e-05
2.08494e-07
-7.49942e-05
3.84341e-08
-7.49366e-05
2.05704e-08
-7.49241e-05
1.53685e-07
-7.49819e-05
4.21556e-07
-7.51277e-05
8.06449e-07
-7.5369e-05
1.28877e-06
-7.57033e-05
1.84665e-06
-7.61196e-05
2.45144e-06
-7.66006e-05
3.06486e-06
-7.71249e-05
3.64131e-06
-7.76662e-05
4.13325e-06
-7.81924e-05
4.49637e-06
-7.86669e-05
4.69395e-06
-7.90513e-05
4.70096e-06
-7.93093e-05
4.50803e-06
-7.9411e-05
4.1245e-06
-7.93382e-05
3.57941e-06
-7.9088e-05
2.91831e-06
-7.86735e-05
2.19652e-06
-7.81272e-05
1.4775e-06
-7.74915e-05
8.118e-07
-7.68085e-05
2.35219e-07
-7.61288e-05
-2.15547e-07
-7.55155e-05
-5.16477e-07
-7.50052e-05
-6.81212e-07
-7.4597e-05
-7.38023e-07
-7.4282e-05
-7.12805e-07
-7.40432e-05
-6.21743e-07
-7.38631e-05
-4.77764e-07
-7.37263e-05
-2.91341e-07
-7.3615e-05
-7.02599e-08
-7.3528e-05
1.76602e-07
-7.34595e-05
4.45722e-07
-7.3414e-05
7.35688e-07
-7.33912e-05
1.03719e-06
-7.33884e-05
1.34279e-06
-7.34011e-05
1.64606e-06
-7.34242e-05
1.94136e-06
-7.34521e-05
2.22386e-06
-7.34786e-05
2.48947e-06
-7.34977e-05
2.73471e-06
-7.3503e-05
2.95658e-06
-7.34884e-05
3.15229e-06
-7.34481e-05
3.31907e-06
-7.33764e-05
3.45391e-06
-7.32682e-05
3.55333e-06
-7.31187e-05
3.61314e-06
-7.29238e-05
3.62819e-06
-7.26796e-05
3.59211e-06
-7.23827e-05
3.49685e-06
-7.203e-05
3.33223e-06
-7.16181e-05
3.08516e-06
-7.11432e-05
2.73862e-06
-7.06001e-05
2.26969e-06
-6.99802e-05
1.64715e-06
-6.92726e-05
8.29476e-07
-6.84681e-05
-2.36379e-07
-6.75638e-05
-1.58398e-06
-6.64937e-05
-3.32913e-06
-6.51496e-05
-5.62516e-06
-6.33949e-05
-8.62991e-06
-6.10477e-05
-1.25157e-05
-5.78752e-05
-1.7443e-05
-5.35966e-05
-2.35067e-05
-4.79067e-05
-3.06326e-05
-4.05307e-05
-3.8378e-05
-3.13286e-05
-4.55522e-05
-2.04931e-05
-4.94969e-05
-8.98167e-06
-4.46585e-05
-1.95864e-05
-4.47219e-06
3.16626e-05
-7.50072e-06
1.22869e-05
-9.24287e-06
2.49486e-06
-1.03644e-05
-2.74126e-08
-1.124e-05
-5.03081e-08
-1.20302e-05
5.29058e-07
-1.27954e-05
1.18176e-06
-1.35796e-05
1.79473e-06
-1.44147e-05
2.36085e-06
-1.53242e-05
2.89038e-06
-1.63278e-05
3.39737e-06
-1.7444e-05
3.89756e-06
-1.86918e-05
4.40729e-06
-2.00916e-05
4.94199e-06
-2.16637e-05
5.5137e-06
-2.34245e-05
6.12632e-06
-2.53788e-05
6.76837e-06
-2.75106e-05
7.40503e-06
-2.97748e-05
7.97398e-06
-3.20954e-05
8.39005e-06
-3.43706e-05
8.56036e-06
-3.64869e-05
8.40582e-06
-3.83356e-05
7.88158e-06
-3.98299e-05
6.98975e-06
-4.0917e-05
5.78168e-06
-4.15859e-05
4.35034e-06
-4.18679e-05
2.81555e-06
-4.18314e-05
1.30513e-06
-4.15697e-05
-6.56208e-08
-4.11863e-05
-1.21053e-06
-4.077e-05
-2.08325e-06
-4.03812e-05
-2.68574e-06
-4.00531e-05
-3.05226e-06
-3.97994e-05
-3.23036e-06
-3.96216e-05
-3.26765e-06
-3.95154e-05
-3.20461e-06
-3.94746e-05
-3.07227e-06
-3.94936e-05
-2.89247e-06
-3.95687e-05
-2.67937e-06
-3.9698e-05
-2.44114e-06
-3.98823e-05
-2.18173e-06
-4.01242e-05
-1.90258e-06
-4.04281e-05
-1.60324e-06
-4.08008e-05
-1.28136e-06
-4.12499e-05
-9.35158e-07
-4.17841e-05
-5.61646e-07
-4.24156e-05
-1.54415e-07
-4.31459e-05
2.78806e-07
-4.39358e-05
7.08695e-07
-4.47332e-05
1.11661e-06
-4.55234e-05
1.50722e-06
-4.63149e-05
1.88514e-06
-4.71119e-05
2.24726e-06
-4.7914e-05
2.58691e-06
-4.87196e-05
2.89588e-06
-4.95266e-05
3.16603e-06
-5.03329e-05
3.39044e-06
-5.11367e-05
3.56422e-06
-5.19359e-05
3.68491e-06
-5.27281e-05
3.75262e-06
-5.35104e-05
3.76979e-06
-5.42789e-05
3.74082e-06
-5.50296e-05
3.6714e-06
-5.57575e-05
3.56796e-06
-5.64576e-05
3.43709e-06
-5.71249e-05
3.28511e-06
-5.77548e-05
3.11781e-06
-5.83433e-05
2.94016e-06
-5.88872e-05
2.75631e-06
-5.93843e-05
2.56962e-06
-5.98333e-05
2.38278e-06
-6.02339e-05
2.19785e-06
-6.05864e-05
2.01634e-06
-6.08921e-05
1.83925e-06
-6.11526e-05
1.66715e-06
-6.13696e-05
1.50026e-06
-6.15452e-05
1.33843e-06
-6.16812e-05
1.18123e-06
-6.17795e-05
1.02791e-06
-6.18415e-05
8.77421e-07
-6.18685e-05
7.28399e-07
-6.18615e-05
5.79185e-07
-6.18209e-05
4.27804e-07
-6.17473e-05
2.72064e-07
-6.16414e-05
1.09579e-07
-6.15014e-05
-6.49268e-08
-6.13304e-05
-2.51458e-07
-6.11303e-05
-4.55087e-07
-6.09085e-05
-6.74494e-07
-6.06698e-05
-9.09741e-07
-6.04184e-05
-1.16063e-06
-6.01586e-05
-1.4258e-06
-5.9896e-05
-1.70181e-06
-5.96371e-05
-1.98271e-06
-5.93898e-05
-2.25986e-06
-5.91637e-05
-2.52201e-06
-5.89702e-05
-2.75541e-06
-5.88219e-05
-2.94402e-06
-5.87332e-05
-3.06989e-06
-5.87191e-05
-3.11369e-06
-5.87948e-05
-3.05543e-06
-5.89745e-05
-2.87574e-06
-5.92699e-05
-2.55753e-06
-5.96879e-05
-2.08824e-06
-6.02295e-05
-1.46215e-06
-6.08867e-05
-6.83231e-07
-6.1643e-05
2.35322e-07
-6.24501e-05
1.22985e-06
-6.33241e-05
2.28319e-06
-6.42944e-05
3.37127e-06
-6.53599e-05
4.44554e-06
-6.6512e-05
5.44975e-06
-6.77382e-05
6.332e-06
-6.90186e-05
7.0508e-06
-7.03252e-05
7.57735e-06
-7.16227e-05
7.89501e-06
-7.28711e-05
7.99753e-06
-7.40302e-05
7.8873e-06
-7.50627e-05
7.57446e-06
-7.5938e-05
7.0767e-06
-7.66347e-05
6.41944e-06
-7.7142e-05
5.63578e-06
-7.7461e-05
4.76581e-06
-7.76037e-05
3.85447e-06
-7.75916e-05
2.94874e-06
-7.74536e-05
2.09475e-06
-7.72226e-05
1.33318e-06
-7.69334e-05
6.98762e-07
-7.6619e-05
2.15999e-07
-7.6305e-05
-1.03372e-07
-7.60251e-05
-2.39461e-07
-7.57933e-05
-2.09376e-07
-7.56138e-05
-2.40501e-08
-7.54896e-05
2.99396e-07
-7.54211e-05
7.40203e-07
-7.5403e-05
1.27314e-06
-7.54211e-05
1.86757e-06
-7.54559e-05
2.48944e-06
-7.54841e-05
3.09666e-06
-7.54797e-05
3.64109e-06
-7.54147e-05
4.0728e-06
-7.52583e-05
4.34509e-06
-7.49785e-05
4.41963e-06
-7.45435e-05
4.27174e-06
-7.39256e-05
3.89602e-06
-7.31069e-05
3.31167e-06
-7.20868e-05
2.56482e-06
-7.08913e-05
1.72797e-06
-6.95642e-05
8.73788e-07
-6.81701e-05
8.69464e-08
-6.68229e-05
-5.32866e-07
-6.56564e-05
-9.30311e-07
-6.47418e-05
-1.13065e-06
-6.40668e-05
-1.193e-06
-6.35881e-05
-1.16208e-06
-6.3266e-05
-1.06259e-06
-6.30685e-05
-9.13088e-07
-6.29655e-05
-7.27629e-07
-6.29293e-05
-5.16968e-07
-6.29351e-05
-2.88485e-07
-6.29625e-05
-4.57707e-08
-6.29973e-05
2.0857e-07
-6.3033e-05
4.78579e-07
-6.30639e-05
7.6384e-07
-6.30852e-05
1.05583e-06
-6.30917e-05
1.34661e-06
-6.30777e-05
1.62952e-06
-6.30379e-05
1.89909e-06
-6.29672e-05
2.15082e-06
-6.28612e-05
2.38111e-06
-6.27158e-05
2.58701e-06
-6.25275e-05
2.76615e-06
-6.22937e-05
2.91642e-06
-6.20124e-05
3.03586e-06
-6.16826e-05
3.12234e-06
-6.13044e-05
3.17341e-06
-6.08788e-05
3.18601e-06
-6.04081e-05
3.15623e-06
-5.98962e-05
3.07903e-06
-5.93481e-05
2.94772e-06
-5.87702e-05
2.75346e-06
-5.81702e-05
2.48438e-06
-5.75566e-05
2.12437e-06
-5.69385e-05
1.65099e-06
-5.63243e-05
1.03231e-06
-5.57229e-05
2.27571e-07
-5.51718e-05
-7.88089e-07
-5.46494e-05
-2.10712e-06
-5.40943e-05
-3.88508e-06
-5.3439e-05
-6.28152e-06
-5.25783e-05
-9.49177e-06
-5.13559e-05
-1.37396e-05
-4.95521e-05
-1.92484e-05
-4.68783e-05
-2.61823e-05
-4.29821e-05
-3.45308e-05
-3.74747e-05
-4.38877e-05
-3.00032e-05
-5.3026e-05
-2.04304e-05
-5.9072e-05
-9.32498e-06
-5.57658e-05
-2.89124e-05
-4.03721e-06
3.56991e-05
-6.99756e-06
1.52464e-05
-8.83652e-06
4.3332e-06
-1.01533e-05
1.28898e-06
-1.12307e-05
1.02677e-06
-1.22038e-05
1.50195e-06
-1.31384e-05
2.11615e-06
-1.4078e-05
2.73403e-06
-1.50526e-05
3.33523e-06
-1.60876e-05
3.9252e-06
-1.72066e-05
4.51605e-06
-1.84323e-05
5.12296e-06
-1.97879e-05
5.76253e-06
-2.12965e-05
6.45015e-06
-2.29789e-05
7.19519e-06
-2.48474e-05
7.99329e-06
-2.68982e-05
8.81648e-06
-2.91025e-05
9.60488e-06
-3.14017e-05
1.0266e-05
-3.37084e-05
1.06864e-05
-3.5917e-05
1.07549e-05
-3.79186e-05
1.03895e-05
-3.96186e-05
9.56035e-06
-4.09529e-05
8.30029e-06
-4.18984e-05
6.70213e-06
-4.24774e-05
4.90438e-06
-4.27537e-05
3.06841e-06
-4.28207e-05
1.35129e-06
-4.27821e-05
-1.21499e-07
-4.27298e-05
-1.2762e-06
-4.27243e-05
-2.09856e-06
-4.27953e-05
-2.62183e-06
-4.29508e-05
-2.9016e-06
-4.3187e-05
-2.99746e-06
-4.34948e-05
-2.96197e-06
-4.38647e-05
-2.83614e-06
-4.42886e-05
-2.64918e-06
-4.47613e-05
-2.42027e-06
-4.52799e-05
-2.16094e-06
-4.58441e-05
-1.87698e-06
-4.64553e-05
-1.57024e-06
-4.71161e-05
-1.24143e-06
-4.78278e-05
-8.91037e-07
-4.85919e-05
-5.16467e-07
-4.94099e-05
-1.1628e-07
-5.02699e-05
2.99455e-07
-5.11323e-05
7.09196e-07
-5.19558e-05
1.10358e-06
-5.27337e-05
1.48804e-06
-5.34831e-05
1.86738e-06
-5.42137e-05
2.23914e-06
-5.49263e-05
2.59893e-06
-5.56184e-05
2.94043e-06
-5.62868e-05
3.25624e-06
-5.69289e-05
3.53867e-06
-5.7543e-05
3.78054e-06
-5.81282e-05
3.97587e-06
-5.86844e-05
4.12047e-06
-5.92118e-05
4.21226e-06
-5.97108e-05
4.25139e-06
-6.01812e-05
4.24007e-06
-6.06229e-05
4.18229e-06
-6.10349e-05
4.08331e-06
-6.14161e-05
3.94921e-06
-6.17652e-05
3.78638e-06
-6.20809e-05
3.60121e-06
-6.23625e-05
3.39979e-06
-6.26093e-05
3.18758e-06
-6.28217e-05
2.96927e-06
-6.30002e-05
2.74883e-06
-6.31464e-05
2.52959e-06
-6.32622e-05
2.31425e-06
-6.335e-05
2.10478e-06
-6.34128e-05
1.90247e-06
-6.34532e-05
1.70799e-06
-6.34741e-05
1.52146e-06
-6.3478e-05
1.34253e-06
-6.34671e-05
1.17038e-06
-6.3443e-05
1.0038e-06
-6.3407e-05
8.41264e-07
-6.33598e-05
6.80924e-07
-6.33016e-05
5.20701e-07
-6.32326e-05
3.5834e-07
-6.31525e-05
1.9156e-07
-6.30615e-05
1.80264e-08
-6.29635e-05
-1.6355e-07
-6.28626e-05
-3.53005e-07
-6.27651e-05
-5.53439e-07
-6.26744e-05
-7.65992e-07
-6.25937e-05
-9.91322e-07
-6.25261e-05
-1.2292e-06
-6.24749e-05
-1.4779e-06
-6.24445e-05
-1.73331e-06
-6.24398e-05
-1.9885e-06
-6.2467e-05
-2.23377e-06
-6.25333e-05
-2.45683e-06
-6.26468e-05
-2.64319e-06
-6.28155e-05
-2.77646e-06
-6.30477e-05
-2.83888e-06
-6.33505e-05
-2.81205e-06
-6.37292e-05
-2.67786e-06
-6.41861e-05
-2.41982e-06
-6.47197e-05
-2.02479e-06
-6.53235e-05
-1.48501e-06
-6.59859e-05
-8.00072e-07
-6.66902e-05
2.1081e-08
-6.74074e-05
9.52868e-07
-6.815e-05
1.97298e-06
-6.89297e-05
3.06394e-06
-6.97402e-05
4.18321e-06
-7.05691e-05
5.27634e-06
-7.14032e-05
6.28637e-06
-7.22285e-05
7.16018e-06
-7.30275e-05
7.85325e-06
-7.37788e-05
8.33247e-06
-7.44567e-05
8.57709e-06
-7.50331e-05
8.57841e-06
-7.54802e-05
8.33912e-06
-7.57736e-05
7.87267e-06
-7.58952e-05
7.2031e-06
-7.58358e-05
6.3648e-06
-7.55971e-05
5.40169e-06
-7.51926e-05
4.36562e-06
-7.46476e-05
3.31344e-06
-7.39969e-05
2.30171e-06
-7.32845e-05
1.38563e-06
-7.25546e-05
6.06081e-07
-7.18442e-05
-9.1179e-09
-7.12064e-05
-4.19549e-07
-7.06821e-05
-6.25858e-07
-7.02661e-05
-6.53643e-07
-6.99387e-05
-5.35061e-07
-6.9671e-05
-2.89801e-07
-6.94373e-05
6.78923e-08
-6.92172e-05
5.22603e-07
-6.90007e-05
1.05954e-06
-6.87688e-05
1.63895e-06
-6.84977e-05
2.22213e-06
-6.81614e-05
2.76474e-06
-6.77329e-05
3.21744e-06
-6.71841e-05
3.52944e-06
-6.6486e-05
3.65294e-06
-6.56085e-05
3.54849e-06
-6.45216e-05
3.19141e-06
-6.31993e-05
2.58047e-06
-6.16302e-05
1.74917e-06
-5.98236e-05
7.64544e-07
-5.78271e-05
-2.62825e-07
-5.58127e-05
-1.13595e-06
-5.39952e-05
-1.72727e-06
-5.24797e-05
-2.04676e-06
-5.12508e-05
-2.15867e-06
-5.02625e-05
-2.11938e-06
-4.94887e-05
-1.96786e-06
-4.8915e-05
-1.73748e-06
-4.85243e-05
-1.45544e-06
-4.8295e-05
-1.14491e-06
-4.82004e-05
-8.24989e-07
-4.82098e-05
-5.10517e-07
-4.82898e-05
-2.11511e-07
-4.84139e-05
7.52659e-08
-4.85621e-05
3.53826e-07
-4.87234e-05
6.36833e-07
-4.88788e-05
9.16317e-07
-4.90124e-05
1.18671e-06
-4.91119e-05
1.44345e-06
-4.91675e-05
1.6826e-06
-4.91719e-05
1.90099e-06
-4.91194e-05
2.09602e-06
-4.90061e-05
2.26565e-06