/*--------------------------------*- C++ -*----------------------------------*\
  =========                 |
  \\      /  F ield         | OpenFOAM: The Open Source CFD Toolbox
   \\    /   O peration     | Website:  https://openfoam.org
    \\  /    A nd           | Version:  11
     \\/     M anipulation  |
\*---------------------------------------------------------------------------*/
FoamFile
{
    format      ascii;
    class       volScalarField;
    location    "18";
    object      T;
}
// * * * * * * * * * * * * * * * * * * * * * * * * * * * * * * * * * * * * * //

dimensions      [0 0 0 1 0 0 0];

internalField   nonuniform List<scalar> 
40000
(
298.619
294.465
293.566
293.35
293.293
293.276
293.27
293.269
293.268
293.267
293.267
293.267
293.267
293.266
293.266
293.266
293.266
293.266
293.265
293.265
293.263
293.261
293.258
293.251
293.242
293.229
293.211
293.187
293.158
293.123
293.08
293.031
292.974
292.913
292.848
292.781
292.714
292.648
292.584
292.523
292.464
292.409
292.356
292.307
292.261
292.219
292.178
292.141
292.106
292.073
292.042
292.013
291.986
291.959
291.934
291.909
291.886
291.863
291.84
291.818
291.796
291.774
291.751
291.729
291.705
291.681
291.656
291.63
291.603
291.575
291.546
291.516
291.485
291.454
291.422
291.39
291.358
291.325
291.292
291.259
291.227
291.195
291.163
291.132
291.102
291.073
291.044
291.017
290.991
290.965
290.941
290.919
290.897
290.877
290.858
290.841
290.825
290.81
290.797
290.784
290.773
290.762
290.752
290.742
290.733
290.723
290.714
290.705
290.696
290.687
290.678
290.669
290.66
290.652
290.643
290.635
290.627
290.62
290.614
290.609
290.605
290.601
290.598
290.596
290.595
290.594
290.594
290.594
290.594
290.594
290.594
290.594
290.594
290.594
290.593
290.593
290.592
290.59
290.589
290.589
290.589
290.59
290.591
290.594
290.597
290.601
290.605
290.61
290.614
290.617
290.62
290.621
290.622
290.621
290.62
290.617
290.614
290.61
290.606
290.601
290.596
290.59
290.584
290.578
290.571
290.564
290.556
290.548
290.539
290.529
290.518
290.507
290.494
290.481
290.468
290.453
290.439
290.424
290.41
290.395
290.381
290.366
290.351
290.336
290.321
290.305
290.289
290.272
290.255
290.236
290.216
290.187
290.146
290.091
290.016
289.914
289.774
289.576
289.268
288.604
298.893
294.472
293.538
293.334
293.286
293.273
293.27
293.268
293.268
293.267
293.267
293.267
293.267
293.266
293.266
293.266
293.265
293.264
293.262
293.259
293.252
293.24
293.222
293.195
293.158
293.111
293.052
292.983
292.905
292.819
292.725
292.626
292.526
292.431
292.342
292.262
292.189
292.125
292.068
292.018
291.974
291.935
291.901
291.87
291.843
291.819
291.798
291.78
291.764
291.75
291.737
291.726
291.716
291.706
291.697
291.687
291.677
291.667
291.655
291.641
291.626
291.608
291.588
291.565
291.541
291.513
291.484
291.454
291.422
291.389
291.356
291.322
291.289
291.257
291.225
291.194
291.164
291.135
291.107
291.08
291.054
291.029
291.006
290.984
290.963
290.943
290.925
290.907
290.891
290.876
290.863
290.85
290.839
290.829
290.819
290.81
290.801
290.793
290.784
290.776
290.767
290.758
290.749
290.739
290.729
290.719
290.709
290.698
290.688
290.678
290.669
290.661
290.654
290.648
290.644
290.641
290.639
290.639
290.64
290.643
290.646
290.65
290.654
290.658
290.662
290.666
290.67
290.673
290.675
290.677
290.679
290.68
290.681
290.683
290.684
290.686
290.689
290.692
290.695
290.7
290.706
290.714
290.722
290.732
290.741
290.751
290.761
290.769
290.776
290.782
290.787
290.79
290.791
290.791
290.789
290.786
290.783
290.778
290.773
290.768
290.763
290.757
290.752
290.746
290.741
290.736
290.73
290.725
290.72
290.716
290.711
290.707
290.704
290.701
290.698
290.697
290.696
290.697
290.698
290.7
290.703
290.707
290.711
290.716
290.722
290.727
290.732
290.735
290.737
290.731
290.711
290.677
290.624
290.546
290.435
290.279
290.064
289.765
289.341
288.625
299.201
294.568
293.549
293.331
293.283
293.272
293.269
293.268
293.268
293.268
293.267
293.267
293.267
293.267
293.266
293.265
293.263
293.259
293.252
293.238
293.215
293.18
293.129
293.061
292.974
292.871
292.753
292.625
292.489
292.35
292.212
292.085
291.972
291.874
291.791
291.721
291.664
291.616
291.577
291.545
291.519
291.498
291.48
291.467
291.456
291.448
291.442
291.439
291.438
291.438
291.44
291.443
291.447
291.452
291.457
291.46
291.462
291.461
291.456
291.446
291.433
291.415
291.392
291.366
291.338
291.307
291.275
291.243
291.212
291.181
291.151
291.124
291.098
291.073
291.051
291.03
291.011
290.993
290.977
290.962
290.949
290.936
290.925
290.914
290.905
290.897
290.889
290.883
290.877
290.871
290.867
290.862
290.857
290.852
290.846
290.84
290.833
290.825
290.817
290.807
290.797
290.786
290.774
290.761
290.748
290.736
290.723
290.712
290.703
290.697
290.693
290.692
290.692
290.695
290.7
290.708
290.717
290.728
290.74
290.753
290.766
290.78
290.793
290.806
290.818
290.828
290.838
290.846
290.852
290.858
290.862
290.866
290.87
290.874
290.878
290.883
290.889
290.897
290.906
290.918
290.931
290.947
290.965
290.984
291.004
291.025
291.045
291.064
291.082
291.097
291.109
291.119
291.126
291.13
291.131
291.129
291.125
291.118
291.111
291.103
291.095
291.089
291.084
291.079
291.076
291.073
291.071
291.07
291.07
291.072
291.074
291.079
291.084
291.092
291.1
291.111
291.123
291.137
291.152
291.169
291.187
291.206
291.226
291.245
291.264
291.281
291.295
291.304
291.303
291.288
291.259
291.211
291.139
291.034
290.885
290.679
290.396
290.011
289.488
288.74
299.479
294.68
293.576
293.336
293.284
293.272
293.27
293.269
293.268
293.268
293.268
293.267
293.267
293.266
293.265
293.263
293.258
293.248
293.229
293.199
293.151
293.082
292.99
292.875
292.738
292.584
292.418
292.247
292.079
291.921
291.78
291.661
291.564
291.486
291.424
291.376
291.338
291.309
291.286
291.269
291.255
291.246
291.239
291.235
291.233
291.233
291.236
291.24
291.246
291.253
291.262
291.272
291.283
291.294
291.302
291.308
291.31
291.308
291.301
291.289
291.273
291.254
291.231
291.207
291.182
291.157
291.133
291.11
291.089
291.071
291.054
291.039
291.026
291.014
291.005
290.996
290.989
290.982
290.977
290.972
290.968
290.964
290.961
290.958
290.956
290.954
290.952
290.95
290.948
290.945
290.942
290.938
290.933
290.928
290.921
290.914
290.905
290.895
290.884
290.872
290.859
290.846
290.832
290.819
290.806
290.794
290.785
290.779
290.776
290.776
290.778
290.784
290.793
290.805
290.82
290.838
290.858
290.88
290.904
290.928
290.952
290.976
290.999
291.021
291.041
291.059
291.074
291.088
291.099
291.108
291.116
291.123
291.129
291.135
291.143
291.151
291.162
291.176
291.192
291.211
291.235
291.261
291.291
291.324
291.358
291.393
291.428
291.462
291.493
291.52
291.542
291.559
291.571
291.577
291.576
291.569
291.559
291.549
291.538
291.527
291.517
291.508
291.501
291.496
291.493
291.491
291.49
291.492
291.495
291.501
291.508
291.517
291.528
291.542
291.557
291.574
291.594
291.614
291.637
291.661
291.685
291.711
291.735
291.759
291.78
291.798
291.81
291.814
291.804
291.783
291.747
291.689
291.602
291.478
291.301
291.057
290.722
290.269
289.665
288.844
299.729
294.79
293.608
293.343
293.286
293.273
293.27
293.269
293.269
293.268
293.268
293.268
293.267
293.266
293.264
293.258
293.248
293.23
293.197
293.146
293.07
292.967
292.836
292.68
292.504
292.316
292.125
291.939
291.769
291.622
291.501
291.407
291.335
291.28
291.24
291.21
291.188
291.171
291.159
291.151
291.145
291.141
291.14
291.14
291.142
291.146
291.151
291.158
291.165
291.175
291.184
291.194
291.203
291.21
291.214
291.216
291.214
291.209
291.201
291.19
291.177
291.163
291.148
291.134
291.12
291.108
291.097
291.088
291.081
291.075
291.071
291.068
291.067
291.066
291.065
291.065
291.066
291.066
291.067
291.067
291.067
291.068
291.068
291.067
291.067
291.066
291.065
291.063
291.06
291.057
291.052
291.047
291.041
291.034
291.026
291.016
291.006
290.995
290.983
290.971
290.958
290.945
290.932
290.921
290.911
290.903
290.899
290.898
290.9
290.904
290.913
290.925
290.942
290.962
290.986
291.013
291.043
291.075
291.108
291.142
291.176
291.209
291.24
291.27
291.297
291.321
291.341
291.359
291.374
291.386
291.397
291.405
291.413
291.422
291.433
291.446
291.462
291.482
291.506
291.534
291.567
291.605
291.647
291.693
291.742
291.791
291.841
291.888
291.93
291.968
291.998
292.018
292.026
292.023
292.015
292.003
291.99
291.976
291.962
291.949
291.937
291.926
291.917
291.91
291.906
291.903
291.903
291.906
291.91
291.917
291.926
291.938
291.951
291.967
291.984
292.003
292.024
292.047
292.071
292.096
292.121
292.146
292.171
292.193
292.213
292.228
292.237
292.236
292.225
292.202
292.162
292.1
292.007
291.872
291.678
291.406
291.029
290.518
289.836
288.916
299.951
294.894
293.639
293.351
293.288
293.274
293.271
293.27
293.27
293.269
293.269
293.268
293.267
293.265
293.261
293.253
293.236
293.207
293.16
293.088
292.986
292.853
292.691
292.506
292.305
292.1
291.903
291.723
291.569
291.445
291.35
291.281
291.231
291.196
291.172
291.155
291.143
291.135
291.129
291.125
291.123
291.122
291.122
291.124
291.127
291.131
291.136
291.142
291.149
291.155
291.162
291.167
291.172
291.176
291.178
291.178
291.176
291.174
291.17
291.165
291.161
291.157
291.153
291.151
291.15
291.15
291.152
291.155
291.159
291.164
291.17
291.175
291.181
291.186
291.191
291.196
291.199
291.203
291.205
291.207
291.208
291.209
291.209
291.208
291.206
291.204
291.202
291.198
291.194
291.189
291.183
291.176
291.169
291.161
291.152
291.142
291.132
291.121
291.11
291.098
291.087
291.076
291.066
291.058
291.052
291.048
291.048
291.05
291.055
291.064
291.078
291.096
291.119
291.147
291.178
291.213
291.251
291.291
291.332
291.374
291.415
291.454
291.491
291.525
291.556
291.582
291.604
291.622
291.636
291.647
291.655
291.663
291.671
291.681
291.694
291.711
291.731
291.756
291.785
291.82
291.86
291.906
291.956
292.01
292.067
292.125
292.182
292.236
292.284
292.323
292.348
292.363
292.37
292.37
292.366
292.358
292.347
292.335
292.321
292.307
292.295
292.283
292.272
292.263
292.257
292.253
292.252
292.254
292.258
292.265
292.275
292.287
292.3
292.316
292.334
292.353
292.373
292.395
292.417
292.441
292.464
292.488
292.511
292.531
292.549
292.563
292.569
292.568
292.559
292.538
292.501
292.442
292.349
292.212
292.011
291.722
291.315
290.752
289.992
288.965
300.15
294.991
293.67
293.359
293.29
293.275
293.272
293.271
293.27
293.27
293.269
293.268
293.267
293.264
293.258
293.246
293.224
293.185
293.124
293.033
292.91
292.753
292.569
292.364
292.152
291.944
291.752
291.587
291.454
291.355
291.284
291.235
291.202
291.182
291.168
291.16
291.154
291.15
291.148
291.147
291.147
291.147
291.149
291.151
291.154
291.158
291.162
291.166
291.171
291.176
291.18
291.185
291.189
291.193
291.196
291.199
291.203
291.206
291.21
291.214
291.22
291.226
291.234
291.242
291.252
291.263
291.275
291.287
291.299
291.31
291.322
291.333
291.342
291.351
291.359
291.365
291.37
291.373
291.376
291.377
291.376
291.375
291.372
291.369
291.365
291.359
291.354
291.347
291.341
291.333
291.325
291.317
291.309
291.3
291.29
291.281
291.271
291.261
291.251
291.242
291.232
291.224
291.218
291.213
291.21
291.21
291.212
291.217
291.226
291.24
291.258
291.282
291.311
291.344
291.382
291.424
291.469
291.516
291.564
291.612
291.659
291.703
291.744
291.78
291.811
291.836
291.855
291.866
291.871
291.871
291.87
291.871
291.874
291.88
291.889
291.904
291.924
291.948
291.978
292.014
292.054
292.1
292.15
292.202
292.256
292.31
292.361
292.407
292.445
292.477
292.503
292.525
292.543
292.557
292.567
292.573
292.576
292.575
292.571
292.565
292.557
292.548
292.538
292.529
292.522
292.517
292.515
292.515
292.518
292.524
292.533
292.543
292.556
292.571
292.587
292.605
292.623
292.643
292.664
292.685
292.707
292.728
292.749
292.768
292.785
292.799
292.806
292.81
292.806
292.792
292.762
292.711
292.626
292.495
292.296
292.001
291.573
290.967
290.134
288.999
300.329
295.081
293.699
293.368
293.293
293.277
293.273
293.272
293.271
293.27
293.27
293.269
293.267
293.263
293.255
293.24
293.212
293.166
293.093
292.988
292.848
292.675
292.475
292.261
292.044
291.84
291.66
291.513
291.401
291.321
291.268
291.235
291.215
291.205
291.199
291.197
291.196
291.196
291.197
291.199
291.201
291.204
291.206
291.209
291.212
291.216
291.22
291.224
291.229
291.235
291.241
291.248
291.255
291.262
291.27
291.279
291.289
291.3
291.312
291.326
291.34
291.356
291.372
291.39
291.408
291.427
291.445
291.464
291.482
291.498
291.514
291.529
291.541
291.552
291.561
291.568
291.573
291.576
291.577
291.576
291.574
291.569
291.563
291.555
291.546
291.535
291.524
291.513
291.501
291.49
291.478
291.466
291.455
291.444
291.433
291.422
291.412
291.402
291.393
291.385
291.379
291.373
291.369
291.368
291.368
291.371
291.376
291.384
291.397
291.415
291.439
291.467
291.501
291.541
291.585
291.633
291.684
291.738
291.792
291.847
291.9
291.95
291.996
292.036
292.069
292.092
292.103
292.104
292.099
292.09
292.078
292.066
292.054
292.046
292.042
292.044
292.053
292.068
292.089
292.117
292.149
292.187
292.227
292.271
292.315
292.359
292.401
292.44
292.476
292.511
292.543
292.572
292.599
292.622
292.643
292.661
292.676
292.688
292.697
292.704
292.707
292.708
292.706
292.703
292.7
292.698
292.696
292.696
292.698
292.703
292.709
292.717
292.727
292.74
292.753
292.768
292.784
292.801
292.819
292.838
292.857
292.876
292.895
292.913
292.93
292.945
292.957
292.967
292.971
292.967
292.948
292.908
292.836
292.718
292.529
292.239
291.8
291.159
290.258
289.024
300.49
295.165
293.727
293.376
293.296
293.278
293.274
293.272
293.272
293.271
293.27
293.269
293.267
293.262
293.253
293.236
293.204
293.152
293.071
292.955
292.804
292.62
292.412
292.193
291.978
291.781
291.614
291.483
291.388
291.324
291.285
291.263
291.252
291.249
291.25
291.254
291.258
291.263
291.267
291.272
291.276
291.28
291.284
291.289
291.294
291.3
291.306
291.313
291.322
291.331
291.341
291.351
291.363
291.377
291.391
291.406
291.423
291.442
291.461
291.482
291.504
291.527
291.551
291.575
291.6
291.624
291.648
291.671
291.694
291.714
291.734
291.751
291.766
291.779
291.79
291.797
291.803
291.806
291.806
291.803
291.799
291.792
291.783
291.771
291.758
291.743
291.726
291.708
291.688
291.668
291.649
291.63
291.613
291.595
291.579
291.564
291.55
291.538
291.527
291.518
291.512
291.508
291.506
291.506
291.509
291.513
291.522
291.534
291.551
291.573
291.6
291.633
291.671
291.714
291.762
291.813
291.868
291.924
291.98
292.036
292.089
292.138
292.181
292.218
292.245
292.263
292.276
292.284
292.288
292.287
292.281
292.27
292.255
292.238
292.22
292.203
292.192
292.188
292.19
292.2
292.216
292.238
292.266
292.3
292.337
292.376
292.415
292.454
292.492
292.529
292.564
292.596
292.627
292.655
292.68
292.703
292.724
292.742
292.757
292.77
292.782
292.791
292.797
292.802
292.805
292.808
292.811
292.814
292.817
292.821
292.827
292.834
292.842
292.851
292.862
292.874
292.887
292.9
292.915
292.93
292.945
292.961
292.977
292.993
293.009
293.025
293.041
293.056
293.068
293.074
293.068
293.042
292.985
292.883
292.712
292.434
291.994
291.326
290.365
289.042
300.637
295.244
293.755
293.385
293.299
293.279
293.275
293.273
293.272
293.272
293.271
293.27
293.267
293.262
293.252
293.233
293.2
293.144
293.058
292.937
292.78
292.59
292.378
292.158
291.946
291.757
291.601
291.483
291.4
291.348
291.319
291.306
291.303
291.306
291.312
291.32
291.327
291.335
291.342
291.349
291.357
291.364
291.372
291.381
291.39
291.4
291.411
291.423
291.436
291.45
291.465
291.481
291.499
291.518
291.538
291.559
291.582
291.607
291.632
291.658
291.685
291.713
291.742
291.77
291.798
291.826
291.854
291.881
291.906
291.931
291.954
291.974
291.992
292.007
292.019
292.028
292.034
292.037
292.037
292.034
292.028
292.02
292.009
291.996
291.982
291.965
291.947
291.927
291.906
291.883
291.858
291.831
291.803
291.775
291.748
291.722
291.698
291.676
291.658
291.643
291.632
291.624
291.62
291.618
291.62
291.626
291.637
291.652
291.671
291.696
291.725
291.759
291.798
291.841
291.888
291.937
291.988
292.038
292.087
292.133
292.174
292.21
292.239
292.265
292.288
292.311
292.334
292.355
292.374
292.39
292.403
292.411
292.414
292.411
292.403
292.391
292.374
292.357
292.345
292.338
292.337
292.344
292.36
292.383
292.41
292.442
292.475
292.51
292.545
292.58
292.613
292.645
292.674
292.702
292.728
292.751
292.772
292.791
292.808
292.823
292.837
292.848
292.858
292.867
292.874
292.88
292.886
292.892
292.897
292.903
292.909
292.916
292.923
292.931
292.94
292.95
292.961
292.971
292.983
292.995
293.007
293.02
293.032
293.045
293.059
293.073
293.088
293.104
293.12
293.133
293.137
293.124
293.082
292.997
292.846
292.586
292.153
291.467
290.453
289.055
300.77
295.318
293.782
293.394
293.302
293.28
293.275
293.274
293.273
293.272
293.272
293.27
293.268
293.263
293.252
293.233
293.199
293.142
293.056
292.933
292.774
292.583
292.37
292.151
291.943
291.759
291.61
291.499
291.423
291.377
291.354
291.345
291.347
291.354
291.364
291.376
291.388
291.4
291.412
291.423
291.435
291.448
291.46
291.474
291.488
291.503
291.518
291.535
291.553
291.572
291.592
291.613
291.635
291.658
291.682
291.708
291.734
291.761
291.789
291.818
291.847
291.876
291.905
291.934
291.963
291.992
292.019
292.044
292.068
292.089
292.109
292.127
292.144
292.159
292.173
292.185
292.194
292.202
292.207
292.21
292.211
292.208
292.203
292.194
292.182
292.168
292.151
292.133
292.113
292.09
292.065
292.038
292.009
291.978
291.946
291.912
291.878
291.844
291.812
291.783
291.757
291.737
291.721
291.712
291.709
291.711
291.72
291.733
291.752
291.776
291.804
291.837
291.873
291.912
291.953
291.995
292.036
292.076
292.112
292.144
292.171
292.195
292.219
292.245
292.273
292.303
292.334
292.366
292.397
292.426
292.452
292.474
292.493
292.508
292.518
292.523
292.524
292.521
292.515
292.509
292.506
292.507
292.514
292.525
292.542
292.562
292.586
292.612
292.639
292.667
292.695
292.722
292.748
292.772
292.795
292.816
292.836
292.854
292.87
292.884
292.897
292.908
292.919
292.928
292.936
292.943
292.95
292.956
292.962
292.968
292.975
292.982
292.989
292.996
293.004
293.013
293.022
293.031
293.04
293.05
293.06
293.07
293.08
293.09
293.101
293.113
293.125
293.139
293.153
293.166
293.175
293.17
293.139
293.069
292.938
292.7
292.28
291.582
290.524
289.064
300.894
295.39
293.81
293.403
293.305
293.282
293.276
293.275
293.274
293.273
293.272
293.271
293.268
293.263
293.254
293.235
293.202
293.147
293.062
292.942
292.786
292.596
292.386
292.169
291.962
291.781
291.634
291.525
291.451
291.406
291.384
291.378
291.382
291.392
291.406
291.421
291.437
291.454
291.47
291.486
291.502
291.519
291.536
291.554
291.572
291.59
291.61
291.63
291.651
291.673
291.696
291.719
291.743
291.768
291.793
291.818
291.844
291.871
291.897
291.924
291.951
291.977
292.003
292.028
292.053
292.076
292.1
292.122
292.145
292.166
292.187
292.208
292.227
292.246
292.263
292.279
292.293
292.306
292.317
292.326
292.333
292.338
292.34
292.34
292.337
292.33
292.319
292.306
292.29
292.272
292.251
292.228
292.201
292.172
292.14
292.104
292.067
292.027
291.986
291.945
291.906
291.87
291.84
291.816
291.799
291.79
291.789
291.794
291.806
291.824
291.847
291.874
291.904
291.936
291.97
292.003
292.034
292.064
292.09
292.113
292.135
292.16
292.188
292.22
292.256
292.295
292.335
292.375
292.415
292.452
292.486
292.517
292.545
292.568
292.588
292.605
292.617
292.627
292.635
292.641
292.646
292.651
292.658
292.667
292.679
292.693
292.709
292.728
292.749
292.77
292.792
292.813
292.834
292.855
292.874
292.892
292.909
292.924
292.938
292.951
292.962
292.973
292.982
292.99
292.998
293.005
293.012
293.018
293.024
293.029
293.035
293.042
293.048
293.055
293.062
293.069
293.076
293.084
293.091
293.099
293.107
293.115
293.123
293.131
293.14
293.149
293.159
293.169
293.18
293.19
293.197
293.194
293.17
293.111
292.997
292.781
292.376
291.673
290.579
289.07
301.008
295.459
293.837
293.412
293.308
293.283
293.277
293.275
293.274
293.274
293.273
293.272
293.269
293.265
293.256
293.239
293.208
293.157
293.077
292.963
292.812
292.628
292.421
292.207
292.002
291.82
291.672
291.56
291.482
291.435
291.411
291.403
291.408
291.419
291.435
291.453
291.473
291.492
291.512
291.531
291.551
291.57
291.59
291.61
291.631
291.651
291.672
291.694
291.715
291.737
291.759
291.782
291.804
291.827
291.85
291.873
291.896
291.919
291.942
291.965
291.988
292.011
292.035
292.059
292.084
292.109
292.134
292.159
292.184
292.209
292.234
292.257
292.28
292.303
292.324
292.344
292.362
292.379
292.395
292.409
292.421
292.431
292.439
292.445
292.449
292.45
292.448
292.443
292.434
292.422
292.407
292.389
292.369
292.345
292.318
292.287
292.253
292.215
292.173
292.129
292.083
292.038
291.995
291.956
291.923
291.896
291.878
291.868
291.866
291.871
291.882
291.899
291.919
291.942
291.966
291.991
292.015
292.038
292.06
292.083
292.111
292.143
292.18
292.221
292.266
292.313
292.361
292.408
292.453
292.496
292.535
292.571
292.603
292.631
292.656
292.677
292.695
292.711
292.724
292.736
292.747
292.758
292.769
292.78
292.792
292.805
292.82
292.835
292.852
292.869
292.886
292.904
292.921
292.937
292.953
292.968
292.981
292.994
293.006
293.017
293.027
293.035
293.044
293.051
293.058
293.064
293.07
293.075
293.081
293.086
293.091
293.096
293.102
293.107
293.113
293.119
293.124
293.13
293.136
293.142
293.148
293.154
293.161
293.167
293.174
293.18
293.188
293.195
293.203
293.21
293.213
293.207
293.185
293.134
293.033
292.835
292.447
291.742
290.62
289.074
301.114
295.526
293.864
293.422
293.311
293.284
293.278
293.276
293.275
293.274
293.274
293.272
293.27
293.266
293.259
293.244
293.216
293.17
293.097
292.992
292.85
292.675
292.474
292.264
292.059
291.875
291.722
291.603
291.519
291.465
291.435
291.424
291.426
291.437
291.453
291.472
291.492
291.514
291.535
291.556
291.578
291.598
291.619
291.64
291.66
291.681
291.701
291.721
291.741
291.761
291.78
291.8
291.819
291.839
291.858
291.878
291.898
291.919
291.94
291.964
291.988
292.013
292.04
292.068
292.096
292.125
292.154
292.183
292.212
292.241
292.27
292.298
292.324
292.35
292.375
292.398
292.42
292.441
292.46
292.477
292.493
292.507
292.519
292.53
292.538
292.544
292.548
292.55
292.549
292.544
292.535
292.524
292.51
292.493
292.473
292.449
292.422
292.39
292.355
292.315
292.272
292.227
292.18
292.134
292.089
292.049
292.015
291.987
291.967
291.955
291.95
291.951
291.958
291.969
291.984
292
292.018
292.038
292.062
292.092
292.127
292.168
292.214
292.264
292.315
292.368
292.42
292.47
292.518
292.563
292.604
292.641
292.675
292.705
292.731
292.755
292.775
292.793
292.809
292.824
292.837
292.85
292.862
292.875
292.887
292.901
292.914
292.928
292.942
292.956
292.971
292.985
292.998
293.012
293.024
293.036
293.048
293.058
293.068
293.076
293.084
293.092
293.099
293.105
293.111
293.116
293.121
293.125
293.13
293.134
293.139
293.143
293.147
293.152
293.156
293.16
293.165
293.169
293.174
293.178
293.183
293.187
293.192
293.197
293.202
293.207
293.212
293.217
293.222
293.225
293.224
293.215
293.192
293.146
293.054
292.87
292.497
291.793
290.649
289.077
301.214
295.591
293.892
293.432
293.314
293.285
293.278
293.276
293.276
293.275
293.274
293.273
293.271
293.268
293.261
293.249
293.225
293.185
293.121
293.027
292.897
292.733
292.542
292.338
292.134
291.947
291.786
291.658
291.564
291.5
291.462
291.443
291.44
291.447
291.461
291.479
291.499
291.52
291.542
291.563
291.584
291.605
291.625
291.645
291.664
291.682
291.7
291.718
291.735
291.752
291.768
291.785
291.801
291.819
291.836
291.855
291.876
291.899
291.924
291.95
291.979
292.008
292.04
292.072
292.105
292.138
292.172
292.206
292.239
292.272
292.305
292.336
292.366
292.396
292.423
292.45
292.475
292.498
292.52
292.54
292.558
292.575
292.59
292.603
292.615
292.624
292.632
292.638
292.642
292.643
292.642
292.637
292.628
292.617
292.604
292.587
292.567
292.544
292.517
292.486
292.45
292.412
292.37
292.326
292.281
292.237
292.195
292.157
292.124
292.097
292.077
292.064
292.057
292.055
292.059
292.068
292.081
292.1
292.128
292.163
292.203
292.249
292.299
292.351
292.404
292.457
292.509
292.559
292.605
292.648
292.688
292.725
292.757
292.787
292.813
292.836
292.857
292.875
292.892
292.907
292.921
292.934
292.946
292.959
292.971
292.983
292.995
293.007
293.019
293.031
293.042
293.054
293.065
293.076
293.086
293.095
293.104
293.112
293.12
293.127
293.133
293.139
293.145
293.15
293.154
293.159
293.163
293.166
293.17
293.174
293.177
293.18
293.184
293.187
293.19
293.193
293.197
293.2
293.203
293.207
293.21
293.213
293.217
293.22
293.224
293.227
293.23
293.233
293.236
293.236
293.233
293.221
293.197
293.151
293.066
292.892
292.531
291.829
290.669
289.078
301.308
295.655
293.92
293.442
293.317
293.286
293.279
293.277
293.276
293.276
293.275
293.274
293.273
293.27
293.264
293.254
293.235
293.202
293.147
293.065
292.949
292.8
292.622
292.425
292.225
292.035
291.867
291.728
291.621
291.544
291.494
291.465
291.453
291.454
291.462
291.477
291.495
291.514
291.535
291.555
291.575
291.594
291.613
291.63
291.647
291.663
291.679
291.694
291.708
291.723
291.737
291.752
291.768
291.785
291.804
291.826
291.85
291.877
291.906
291.937
291.97
292.005
292.042
292.079
292.117
292.155
292.193
292.231
292.269
292.306
292.341
292.376
292.409
292.441
292.472
292.5
292.527
292.553
292.577
292.599
292.619
292.637
292.654
292.67
292.683
292.695
292.705
292.714
292.721
292.726
292.729
292.73
292.728
292.722
292.714
292.704
292.691
292.674
292.655
292.633
292.607
292.577
292.545
292.509
292.471
292.431
292.392
292.353
292.317
292.285
292.257
292.235
292.219
292.209
292.205
292.207
292.217
292.237
292.264
292.298
292.338
292.382
292.428
292.477
292.526
292.574
292.621
292.665
292.707
292.746
292.781
292.814
292.844
292.871
292.895
292.916
292.936
292.953
292.969
292.983
292.996
293.009
293.02
293.032
293.042
293.053
293.063
293.073
293.083
293.093
293.102
293.111
293.12
293.128
293.136
293.143
293.15
293.156
293.162
293.168
293.173
293.177
293.181
293.185
293.189
293.192
293.195
293.198
293.201
293.204
293.206
293.209
293.211
293.214
293.216
293.219
293.221
293.223
293.226
293.228
293.231
293.233
293.235
293.238
293.24
293.242
293.244
293.246
293.246
293.245
293.239
293.226
293.2
293.155
293.071
292.906
292.554
291.853
290.681
289.078
301.397
295.718
293.948
293.452
293.321
293.288
293.28
293.277
293.277
293.276
293.275
293.275
293.273
293.271
293.267
293.259
293.244
293.217
293.172
293.103
293.004
292.872
292.709
292.524
292.33
292.139
291.964
291.815
291.694
291.602
291.537
291.495
291.471
291.462
291.464
291.472
291.485
291.501
291.519
291.537
291.555
291.572
291.588
291.604
291.618
291.632
291.646
291.659
291.672
291.685
291.699
291.715
291.732
291.751
291.773
291.799
291.828
291.859
291.893
291.93
291.968
292.008
292.05
292.092
292.135
292.177
292.22
292.262
292.303
292.343
292.381
292.419
292.454
292.488
292.521
292.551
292.58
292.607
292.632
292.655
292.677
292.697
292.715
292.731
292.746
292.76
292.771
292.782
292.79
292.798
292.803
292.808
292.81
292.81
292.807
292.801
292.794
292.784
292.771
292.756
292.738
292.718
292.694
292.668
292.64
292.609
292.577
292.545
292.514
292.484
292.457
292.434
292.416
292.403
292.396
292.396
292.405
292.422
292.445
292.474
292.507
292.544
292.583
292.623
292.663
292.702
292.741
292.777
292.812
292.845
292.875
292.903
292.928
292.951
292.972
292.991
293.008
293.023
293.037
293.05
293.062
293.073
293.083
293.093
293.102
293.111
293.119
293.127
293.135
293.143
293.15
293.157
293.163
293.169
293.175
293.181
293.186
293.191
293.195
293.199
293.203
293.206
293.209
293.212
293.215
293.217
293.22
293.222
293.224
293.226
293.228
293.23
293.232
293.234
293.235
293.237
293.239
293.24
293.242
293.244
293.245
293.247
293.249
293.25
293.252
293.253
293.254
293.255
293.254
293.251
293.244
293.229
293.203
293.157
293.075
292.913
292.568
291.869
290.688
289.078
301.482
295.78
293.976
293.463
293.325
293.289
293.28
293.278
293.277
293.276
293.276
293.275
293.274
293.273
293.269
293.263
293.252
293.231
293.196
293.14
293.057
292.944
292.8
292.63
292.446
292.258
292.08
291.92
291.786
291.678
291.597
291.539
291.501
291.48
291.471
291.471
291.477
291.488
291.501
291.515
291.53
291.544
291.558
291.572
291.585
291.597
291.609
291.621
291.634
291.648
291.663
291.68
291.7
291.723
291.749
291.78
291.813
291.85
291.889
291.931
291.975
292.02
292.066
292.113
292.16
292.207
292.253
292.298
292.342
292.385
292.426
292.465
292.503
292.539
292.572
292.604
292.634
292.661
292.687
292.711
292.733
292.754
292.773
292.79
292.805
292.819
292.832
292.843
292.853
292.861
292.869
292.875
292.879
292.882
292.884
292.883
292.879
292.874
292.867
292.858
292.847
292.833
292.818
292.8
292.781
292.759
292.737
292.713
292.69
292.667
292.645
292.626
292.611
292.6
292.595
292.596
292.604
292.617
292.634
292.656
292.68
292.708
292.737
292.767
292.798
292.828
292.857
292.886
292.913
292.938
292.962
292.984
293.005
293.024
293.041
293.056
293.071
293.083
293.095
293.106
293.116
293.125
293.134
293.142
293.149
293.156
293.163
293.169
293.175
293.181
293.187
293.192
293.197
293.201
293.206
293.21
293.213
293.217
293.22
293.223
293.225
293.228
293.23
293.232
293.234
293.236
293.238
293.239
293.241
293.242
293.244
293.245
293.246
293.248
293.249
293.25
293.251
293.252
293.254
293.255
293.256
293.257
293.258
293.259
293.26
293.261
293.261
293.261
293.259
293.255
293.247
293.232
293.206
293.16
293.077
292.916
292.576
291.878
290.691
289.077
301.562
295.841
294.004
293.474
293.329
293.29
293.281
293.278
293.277
293.277
293.276
293.276
293.275
293.274
293.271
293.267
293.259
293.243
293.216
293.172
293.106
293.012
292.889
292.738
292.568
292.389
292.211
292.046
291.9
291.777
291.679
291.604
291.55
291.513
291.491
291.48
291.477
291.48
291.487
291.496
291.507
291.519
291.53
291.542
291.553
291.564
291.576
291.588
291.601
291.616
291.633
291.653
291.677
291.705
291.736
291.771
291.81
291.852
291.897
291.944
291.993
292.042
292.093
292.144
292.195
292.245
292.294
292.342
292.389
292.433
292.476
292.517
292.556
292.592
292.626
292.659
292.689
292.717
292.743
292.767
292.789
292.809
292.828
292.845
292.861
292.875
292.888
292.899
292.91
292.919
292.927
292.933
292.939
292.944
292.947
292.95
292.95
292.949
292.945
292.941
292.935
292.927
292.917
292.907
292.894
292.881
292.866
292.85
292.834
292.819
292.804
292.791
292.781
292.774
292.771
292.773
292.779
292.789