/*--------------------------------*- C++ -*----------------------------------*\
  =========                 |
  \\      /  F ield         | OpenFOAM: The Open Source CFD Toolbox
   \\    /   O peration     | Website:  https://openfoam.org
    \\  /    A nd           | Version:  12
     \\/     M anipulation  |
\*---------------------------------------------------------------------------*/
FoamFile
{
    format      ascii;
    class       surfaceScalarField;
    location    "10.02";
    object      phi;
}
// * * * * * * * * * * * * * * * * * * * * * * * * * * * * * * * * * * * * * //

dimensions      [1 0 -1 0 0 0 0];

internalField   nonuniform List<scalar> 
79600
(
-9.02808e-06
9.02853e-06
-9.53475e-06
5.06784e-07
-7.80542e-06
-1.72942e-06
-6.09055e-06
-1.71499e-06
-4.79491e-06
-1.29577e-06
-3.88207e-06
-9.12986e-07
-3.24536e-06
-6.36869e-07
-2.79427e-06
-4.51236e-07
-2.4675e-06
-3.26899e-07
-2.22547e-06
-2.42175e-07
-2.04237e-06
-1.83245e-07
-1.90133e-06
-1.4119e-07
-1.79107e-06
-1.10404e-07
-1.7039e-06
-8.731e-08
-1.63446e-06
-6.95906e-08
-1.5789e-06
-5.57045e-08
-1.53442e-06
-4.4623e-08
-1.49894e-06
-3.56271e-08
-1.47087e-06
-2.82144e-08
-1.44901e-06
-2.20071e-08
-1.4324e-06
-1.67474e-08
-1.42031e-06
-1.22419e-08
-1.4121e-06
-8.35377e-09
-1.40731e-06
-4.9317e-09
-1.40594e-06
-1.51512e-09
-1.4074e-06
1.30989e-09
-1.4112e-06
3.65484e-09
-1.417e-06
5.65638e-09
-1.42513e-06
7.98578e-09
-1.43524e-06
9.964e-09
-1.44707e-06
1.16908e-08
-1.46049e-06
1.32761e-08
-1.47541e-06
1.47687e-08
-1.49175e-06
1.61995e-08
-1.50947e-06
1.75742e-08
-1.52853e-06
1.89202e-08
-1.54891e-06
2.02353e-08
-1.5706e-06
2.15417e-08
-1.59358e-06
2.28392e-08
-1.61787e-06
2.41388e-08
-1.64346e-06
2.54469e-08
-1.67037e-06
2.67646e-08
-1.69862e-06
2.81078e-08
-1.72824e-06
2.94773e-08
-1.75926e-06
3.08776e-08
-1.79172e-06
3.23129e-08
-1.82566e-06
3.38011e-08
-1.86113e-06
3.53308e-08
-1.8982e-06
3.69219e-08
-1.93691e-06
3.85699e-08
-1.97735e-06
4.0292e-08
-2.01957e-06
4.20852e-08
-2.06367e-06
4.39599e-08
-2.10974e-06
4.59243e-08
-2.15787e-06
4.79856e-08
-2.20815e-06
5.01436e-08
-2.26071e-06
5.24135e-08
-2.31565e-06
5.48034e-08
-2.37312e-06
5.73277e-08
-2.43325e-06
5.99897e-08
-2.49619e-06
6.27967e-08
-2.56209e-06
6.5768e-08
-2.63115e-06
6.89164e-08
-2.70354e-06
7.22556e-08
-2.77949e-06
7.58075e-08
-2.8592e-06
7.95697e-08
-2.94291e-06
8.35803e-08
-3.0309e-06
8.78532e-08
-3.12345e-06
9.24069e-08
-3.22085e-06
9.72615e-08
-3.32344e-06
1.02455e-07
-3.43157e-06
1.08002e-07
-3.54564e-06
1.13931e-07
-3.66606e-06
1.20285e-07
-3.79329e-06
1.27094e-07
-3.92781e-06
1.34394e-07
-4.07018e-06
1.42237e-07
-4.22099e-06
1.50671e-07
-4.38086e-06
1.59738e-07
-4.55048e-06
1.69492e-07
-4.73061e-06
1.79999e-07
-4.92207e-06
1.91332e-07
-5.12576e-06
2.03559e-07
-5.34264e-06
2.16755e-07
-5.5738e-06
2.31029e-07
-5.8204e-06
2.46477e-07
-6.08379e-06
2.63261e-07
-6.3654e-06
2.81486e-07
-6.66692e-06
3.01399e-07
-6.99018e-06
3.23137e-07
-7.33733e-06
3.4703e-07
-7.71083e-06
3.73378e-07
-8.11354e-06
4.02589e-07
-8.54883e-06
4.3517e-07
-9.02059e-06
4.71635e-07
-9.53331e-06
5.12598e-07
-1.00917e-05
5.58275e-07
-1.07005e-05
6.0861e-07
-1.13631e-05
6.6233e-07
-1.20793e-05
7.15845e-07
-1.28428e-05
7.6292e-07
-1.36371e-05
7.93365e-07
-1.44332e-05
7.94502e-07
-1.51885e-05
7.52954e-07
-1.58519e-05
6.60002e-07
-1.6371e-05
5.14606e-07
-1.67025e-05
3.25726e-07
-1.68206e-05
1.10892e-07
-1.67149e-05
-1.14588e-07
-1.63712e-05
-3.54239e-07
-1.58016e-05
-5.81542e-07
-1.50251e-05
-7.89381e-07
-1.40756e-05
-9.62838e-07
-1.29984e-05
-1.09044e-06
-1.18447e-05
-1.16629e-06
-1.0668e-05
-1.18861e-06
-9.52012e-06
-1.15873e-06
-8.45013e-06
-1.07974e-06
-7.50256e-06
-9.56216e-07
-6.71558e-06
-7.94523e-07
-6.11845e-06
-6.0368e-07
-5.72841e-06
-3.95655e-07
-5.54789e-06
-1.8538e-07
-5.58088e-06
2.86987e-08
-5.8355e-06
2.50613e-07
-6.29306e-06
4.53727e-07
-6.89563e-06
5.98731e-07
-7.57646e-06
6.7696e-07
-8.28074e-06
7.00171e-07
-8.97614e-06
6.90972e-07
-9.65522e-06
6.74238e-07
-1.03353e-05
6.74746e-07
-1.10486e-05
7.07627e-07
-1.18277e-05
7.73041e-07
-1.26907e-05
8.56536e-07
-1.36333e-05
9.35897e-07
-1.46295e-05
9.8931e-07
-1.56393e-05
1.00287e-06
-1.66193e-05
9.73234e-07
-1.75318e-05
9.06045e-07
-1.83491e-05
8.11531e-07
-1.90554e-05
7.01333e-07
-1.96448e-05
5.85459e-07
-2.01202e-05
4.72609e-07
-2.04915e-05
3.69385e-07
-2.07731e-05
2.80436e-07
-2.09825e-05
2.08947e-07
-2.11398e-05
1.57177e-07
-2.12661e-05
1.26438e-07
-2.13813e-05
1.15538e-07
-2.1506e-05
1.25046e-07
-2.16619e-05
1.56273e-07
-2.18711e-05
2.09457e-07
-2.21536e-05
2.82843e-07
-2.25287e-05
3.7533e-07
-2.30137e-05
4.85203e-07
-2.36242e-05
6.10698e-07
-2.43739e-05
7.49823e-07
-2.52742e-05
9.00466e-07
-2.63343e-05
1.06019e-06
-2.75606e-05
1.22626e-06
-2.8956e-05
1.3954e-06
-3.05212e-05
1.56515e-06
-3.2254e-05
1.73271e-06
-3.41496e-05
1.89535e-06
-3.62002e-05
2.05049e-06
-3.83965e-05
2.19606e-06
-4.0727e-05
2.33026e-06
-4.3179e-05
2.45169e-06
-4.57385e-05
2.55925e-06
-4.83909e-05
2.6522e-06
-5.11214e-05
2.73014e-06
-5.39144e-05
2.79271e-06
-5.67547e-05
2.83993e-06
-5.96269e-05
2.87202e-06
-6.25156e-05
2.88836e-06
-6.54046e-05
2.88867e-06
-6.82769e-05
2.87199e-06
-7.11134e-05
2.83633e-06
-7.38924e-05
2.77872e-06
-7.65866e-05
2.694e-06
-7.91616e-05
2.57464e-06
-8.15728e-05
2.41084e-06
-8.37622e-05
2.1892e-06
-8.56534e-05
1.89088e-06
-8.7146e-05
1.49233e-06
-8.81144e-05
9.68221e-07
-8.83399e-05
2.25137e-07
-8.77013e-05
-6.39423e-07
-8.60466e-05
-1.65566e-06
-8.31874e-05
-2.86083e-06
-7.72039e-05
-5.98371e-06
-7.063e-05
-6.57579e-06
-6.02384e-05
-1.03924e-05
-4.70725e-05
-1.31666e-05
-3.10805e-05
-1.59922e-05
-1.37966e-05
-1.7284e-05
1.44173e-06
-1.52385e-05
6.87182e-06
-5.43032e-06
6.87175e-06
-7.30983e-06
1.63393e-05
-9.99173e-06
3.18886e-06
-9.88345e-06
-1.83776e-06
-8.98706e-06
-2.61148e-06
-8.02363e-06
-2.25934e-06
-7.18265e-06
-1.75407e-06
-6.49067e-06
-1.32901e-06
-5.93205e-06
-1.01001e-06
-5.48174e-06
-7.77338e-07
-5.11738e-06
-6.06681e-07
-4.82079e-06
-4.79971e-07
-4.57787e-06
-3.84257e-07
-4.37776e-06
-3.10651e-07
-4.21217e-06
-2.53049e-07
-4.07467e-06
-2.07225e-07
-3.96033e-06
-1.70195e-07
-3.86524e-06
-1.39849e-07
-3.78636e-06
-1.14647e-07
-3.72125e-06
-9.34695e-08
-3.66794e-06
-7.54599e-08
-3.62485e-06
-5.99783e-08
-3.5907e-06
-4.65328e-08
-3.56446e-06
-3.47346e-08
-3.5453e-06
-2.42404e-08
-3.53221e-06
-1.47413e-08
-3.52478e-06
-6.26667e-09
-3.52141e-06
1.47132e-10
-3.5236e-06
7.69795e-09
-3.53055e-06
1.47992e-08
-3.54155e-06
2.08187e-08
-3.55622e-06
2.62147e-08
-3.57429e-06
3.12103e-08
-3.59558e-06
3.59183e-08
-3.61992e-06
4.03975e-08
-3.64719e-06
4.46937e-08
-3.67726e-06
4.88501e-08
-3.71006e-06
5.29004e-08
-3.74555e-06
5.6885e-08
-3.78367e-06
6.0815e-08
-3.82439e-06
6.47234e-08
-3.86771e-06
6.86241e-08
-3.91363e-06
7.25451e-08
-3.96217e-06
7.65014e-08
-4.01334e-06
8.05066e-08
-4.06719e-06
8.45923e-08
-4.12378e-06
8.87544e-08
-4.18315e-06
9.30326e-08
-4.24538e-06
9.74208e-08
-4.31054e-06
1.01948e-07
-4.37875e-06
1.06636e-07
-4.45009e-06
1.11497e-07
-4.5247e-06
1.16552e-07
-4.60269e-06
1.2181e-07
-4.6842e-06
1.27296e-07
-4.76939e-06
1.33039e-07
-4.85843e-06
1.39047e-07
-4.95151e-06
1.45354e-07
-5.04882e-06
1.51977e-07
-5.15058e-06
1.58944e-07
-5.25702e-06
1.66292e-07
-5.3684e-06
1.7404e-07
-5.485e-06
1.8223e-07
-5.60711e-06
1.90892e-07
-5.73506e-06
2.00074e-07
-5.86921e-06
2.09817e-07
-6.00993e-06
2.20161e-07
-6.15765e-06
2.31162e-07
-6.31281e-06
2.42877e-07
-6.4759e-06
2.55362e-07
-6.64746e-06
2.68687e-07
-6.82806e-06
2.82928e-07
-7.01834e-06
2.98146e-07
-7.21898e-06
3.14443e-07
-7.43075e-06
3.31918e-07
-7.65446e-06
3.50673e-07
-7.89101e-06
3.70811e-07
-8.14137e-06
3.92474e-07
-8.40665e-06
4.15819e-07
-8.68804e-06
4.40998e-07
-8.98685e-06
4.68172e-07
-9.30452e-06
4.97542e-07
-9.64264e-06
5.29333e-07
-1.00031e-05
5.6384e-07
-1.03877e-05
6.01291e-07
-1.07989e-05
6.42077e-07
-1.12391e-05
6.86532e-07
-1.17111e-05
7.35181e-07
-1.22183e-05
7.88568e-07
-1.27644e-05
8.47395e-07
-1.3354e-05
9.12571e-07
-1.39922e-05
9.85168e-07
-1.46856e-05
1.06666e-06
-1.54422e-05
1.15902e-06
-1.62718e-05
1.26465e-06
-1.71869e-05
1.38661e-06
-1.82028e-05
1.52825e-06
-1.93365e-05
1.6917e-06
-2.06046e-05
1.87624e-06
-2.20178e-05
2.07457e-06
-2.35721e-05
2.26858e-06
-2.52399e-05
2.42802e-06
-2.69634e-05
2.51245e-06
-2.8655e-05
2.47974e-06
-3.02083e-05
2.29771e-06
-3.15149e-05
1.9555e-06
-3.24814e-05
1.46778e-06
-3.30427e-05
8.71562e-07
-3.31544e-05
2.05517e-07
-3.28092e-05
-4.78567e-07
-3.20508e-05
-1.13193e-06
-3.09443e-05
-1.70679e-06
-2.95819e-05
-2.16895e-06
-2.80579e-05
-2.50185e-06
-2.64576e-05
-2.70362e-06
-2.48531e-05
-2.78152e-06
-2.33044e-05
-2.74599e-06
-2.18624e-05
-2.60765e-06
-2.0571e-05
-2.37649e-06
-1.94686e-05
-2.06253e-06
-1.85888e-05
-1.67708e-06
-1.79595e-05
-1.23458e-06
-1.7607e-05
-7.48948e-07
-1.75854e-05
-2.07225e-07
-1.79715e-05
4.14598e-07
-1.87838e-05
1.06264e-06
-1.99938e-05
1.66305e-06
-2.15665e-05
2.16997e-06
-2.34576e-05
2.56545e-06
-2.56153e-05
2.85397e-06
-2.79843e-05
3.05481e-06
-3.05087e-05
3.19266e-06
-3.31285e-05
3.28813e-06
-3.57786e-05
3.35155e-06
-3.83946e-05
3.38321e-06
-4.09193e-05
3.37589e-06
-4.33079e-05
3.31988e-06
-4.55298e-05
3.20717e-06
-4.75651e-05
3.03475e-06
-4.94019e-05
2.80726e-06
-5.10336e-05
2.53559e-06
-5.24586e-05
2.23509e-06
-5.36812e-05
1.92301e-06
-5.47119e-05
1.6155e-06
-5.55665e-05
1.32697e-06
-5.62664e-05
1.06923e-06
-5.68369e-05
8.50905e-07
-5.73058e-05
6.77907e-07
-5.7702e-05
5.53498e-07
-5.80545e-05
4.78926e-07
-5.83927e-05
4.53796e-07
-5.87445e-05
4.76778e-07
-5.91345e-05
5.4625e-07
-5.95848e-05
6.5965e-07
-6.01154e-05
8.13225e-07
-6.07435e-05
1.00328e-06
-6.14836e-05
1.22505e-06
-6.23466e-05
1.47342e-06
-6.33404e-05
1.7433e-06
-6.44693e-05
2.02897e-06
-6.57343e-05
2.32491e-06
-6.71337e-05
2.62528e-06
-6.86626e-05
2.92405e-06
-7.03135e-05
3.2158e-06
-7.20762e-05
3.4952e-06
-7.39385e-05
3.75727e-06
-7.58864e-05
3.998e-06
-7.79042e-05
4.21362e-06
-7.99755e-05
4.40136e-06
-8.20833e-05
4.55923e-06
-8.42101e-05
4.68575e-06
-8.63384e-05
4.7803e-06
-8.84511e-05
4.84269e-06
-9.05315e-05
4.87283e-06
-9.25628e-05
4.87115e-06
-9.45288e-05
4.83774e-06
-9.64127e-05
4.77224e-06
-9.81975e-05
4.67337e-06
-9.98645e-05
4.53883e-06
-0.000101393
4.36466e-06
-0.000102759
4.14447e-06
-0.000103934
3.86949e-06
-0.000104888
3.52803e-06
-0.000105581
3.10367e-06
-0.000105963
2.57102e-06
-0.000105961
1.88906e-06
-0.000105464
9.946e-07
-0.000104278
-2.18534e-07
-0.000102403
-1.64979e-06
-9.95609e-05
-3.48225e-06
-9.55052e-05
-5.71173e-06
-8.98718e-05
-8.49468e-06
-8.3545e-05
-1.23104e-05
-7.52923e-05
-1.48304e-05
-6.51052e-05
-2.05797e-05
-5.25648e-05
-2.57064e-05
-3.82495e-05
-3.03065e-05
-2.29075e-05
-3.26253e-05
-8.54457e-06
-2.96011e-05
1.77238e-06
-1.57475e-05
8.64418e-06
-5.83506e-06
2.21761e-05
-8.85428e-06
6.20849e-06
-9.60046e-06
-1.09162e-06
-9.42172e-06
-2.79032e-06
-8.94853e-06
-2.73267e-06
-8.42072e-06
-2.28205e-06
-7.92132e-06
-1.82852e-06
-7.47614e-06
-1.45537e-06
-7.08904e-06
-1.16457e-06
-6.75637e-06
-9.39503e-07
-6.47194e-06
-7.64544e-07
-6.22928e-06
-6.27064e-07
-6.02238e-06
-5.17693e-07
-5.84602e-06
-4.29554e-07
-5.69576e-06
-3.57629e-07
-5.56786e-06
-2.98235e-07
-5.45924e-06
-2.48617e-07
-5.3673e-06
-2.06736e-07
-5.2899e-06
-1.7101e-07
-5.22525e-06
-1.40252e-07
-5.17185e-06
-1.13525e-07
-5.12844e-06
-9.00908e-08
-5.09397e-06
-6.93541e-08
-5.06753e-06
-5.08213e-08
-5.04833e-06
-3.40819e-08
-5.03581e-06
-1.89319e-08
-5.02937e-06
-6.44103e-09
-5.02697e-06
5.14755e-09
-5.03134e-06
1.90242e-08
-5.04034e-06
2.9677e-08
-5.05367e-06
3.9401e-08
-5.07115e-06
4.85485e-08
-5.09261e-06
5.72252e-08
-5.11785e-06
6.54972e-08
-5.14675e-06
7.34435e-08
-5.17916e-06
8.11162e-08
-5.21499e-06
8.85924e-08
-5.25417e-06
9.59137e-08
-5.29663e-06
1.03131e-07
-5.34233e-06
1.10281e-07
-5.39126e-06
1.17405e-07
-5.44341e-06
1.24551e-07
-5.49878e-06
1.31736e-07
-5.55742e-06
1.38999e-07
-5.61934e-06
1.46371e-07
-5.68462e-06
1.53883e-07
-5.75329e-06
1.61566e-07
-5.82546e-06
1.69447e-07
-5.90121e-06
1.77552e-07
-5.98064e-06
1.85926e-07
-6.06387e-06
1.94583e-07
-6.15104e-06
2.03574e-07
-6.24228e-06
2.12913e-07
-6.33777e-06
2.22644e-07
-6.43768e-06
2.32808e-07
-6.54221e-06
2.43439e-07
-6.65158e-06
2.54573e-07
-6.76601e-06
2.6627e-07
-6.88576e-06
2.78556e-07
-7.01112e-06
2.91509e-07
-7.14237e-06
3.05154e-07
-7.27985e-06
3.19571e-07
-7.42392e-06
3.34821e-07
-7.57495e-06
3.50971e-07
-7.73338e-06
3.68105e-07
-7.89965e-06
3.86297e-07
-8.07428e-06
4.05646e-07
-8.25779e-06
4.2625e-07
-8.45077e-06
4.48208e-07
-8.65387e-06
4.71652e-07
-8.8678e-06
4.96726e-07
-9.09334e-06
5.23548e-07
-9.3313e-06
5.52272e-07
-9.58263e-06
5.83111e-07
-9.84835e-06
6.16258e-07
-1.01296e-05
6.51887e-07
-1.04275e-05
6.90298e-07
-1.07435e-05
7.31701e-07
-1.10792e-05
7.76494e-07
-1.14361e-05
8.24941e-07
-1.18161e-05
8.77474e-07
-1.22215e-05
9.3456e-07
-1.26544e-05
9.96624e-07
-1.31176e-05
1.06437e-06
-1.36141e-05
1.13844e-06
-1.41474e-05
1.21969e-06
-1.47214e-05
1.30908e-06
-1.53409e-05
1.40796e-06
-1.60114e-05
1.5178e-06
-1.67397e-05
1.64068e-06
-1.75339e-05
1.77925e-06
-1.84044e-05
1.93708e-06
-1.93644e-05
2.11888e-06
-2.04305e-05
2.33056e-06
-2.16232e-05
2.5791e-06
-2.29659e-05
2.87046e-06
-2.44815e-05
3.20651e-06
-2.61853e-05
3.57854e-06
-2.80739e-05
3.96036e-06
-3.01135e-05
4.30348e-06
-3.22329e-05
4.54015e-06
-3.43258e-05
4.59472e-06
-3.62643e-05
4.40378e-06
-3.79189e-05
3.93442e-06
-3.91811e-05
3.19645e-06
-3.99781e-05
2.24125e-06
-4.02813e-05
1.14974e-06
-4.00902e-05
-1.0843e-08
-3.94583e-05
-1.13489e-06
-3.84877e-05
-2.12427e-06
-3.73004e-05
-2.91251e-06
-3.6005e-05
-3.47935e-06
-3.46864e-05
-3.83224e-06
-3.3408e-05
-3.99087e-06
-3.22183e-05
-3.97779e-06
-3.11566e-05
-3.81225e-06
-3.02591e-05
-3.50808e-06
-2.95624e-05
-3.07469e-06
-2.91078e-05
-2.51743e-06
-2.89452e-05
-1.83912e-06
-2.91385e-05
-1.03987e-06
-2.98007e-05
-8.49926e-08
-3.09971e-05
9.91162e-07
-3.26343e-05
2.05386e-06
-3.45998e-05
3.03008e-06
-3.68407e-05
3.90479e-06
-3.93264e-05
4.65528e-06
-4.20276e-05
5.26474e-06
-4.4904e-05
5.72733e-06
-4.79017e-05
6.04881e-06
-5.0955e-05
6.2422e-06
-5.39933e-05
6.32275e-06
-5.69482e-05
6.30346e-06
-5.97608e-05
6.1935e-06
-6.23847e-05
5.99817e-06
-6.47877e-05
5.72187e-06
-6.69506e-05
5.36947e-06
-6.88654e-05
4.94947e-06
-7.05334e-05
4.47538e-06
-7.19626e-05
3.96516e-06
-7.31665e-05
3.43961e-06
-7.41632e-05
2.92014e-06
-7.49739e-05
2.42657e-06
-7.56228e-05
1.97619e-06
-7.61367e-05
1.58328e-06
-7.65435e-05
1.25772e-06
-7.6871e-05
1.00518e-06
-7.7146e-05
8.28103e-07
-7.73934e-05
7.2589e-07
-7.76365e-05
6.96359e-07
-7.78963e-05
7.35876e-07
-7.81907e-05
8.3996e-07
-7.85355e-05
1.00349e-06
-7.89433e-05
1.22033e-06
-7.94246e-05
1.48386e-06
-7.99872e-05
1.78682e-06
-8.0636e-05
2.12144e-06
-8.13732e-05
2.47966e-06
-8.21982e-05
2.85326e-06
-8.31076e-05
3.23373e-06
-8.40957e-05
3.61259e-06
-8.51543e-05
3.98204e-06
-8.62735e-05
4.3345e-06
-8.7442e-05
4.66318e-06
-8.86469e-05
4.96184e-06
-8.98749e-05
5.22559e-06
-9.11118e-05
5.45024e-06
-9.23435e-05
5.63282e-06
-9.35559e-05
5.77136e-06
-9.47355e-05
5.86513e-06
-9.58695e-05
5.91414e-06
-9.69459e-05
5.9189e-06
-9.79535e-05
5.88054e-06
-9.88828e-05
5.80039e-06
-9.97242e-05
5.67921e-06
-0.000100469
5.51713e-06
-0.000101109
5.31303e-06
-0.000101634
5.06422e-06
-0.000102035
4.76572e-06
-0.000102301
4.41016e-06
-0.000102419
3.98769e-06
-0.000102376
3.48492e-06
-0.000102155
2.8824e-06
-0.000101732
2.14821e-06
-0.000101064
1.22118e-06
-0.000100064
-6.66481e-09
-9.87649e-05
-1.51763e-06
-9.69966e-05
-3.41845e-06
-9.46801e-05
-5.79919e-06
-9.16223e-05
-8.77028e-06
-8.75221e-05
-1.25955e-05
-8.23675e-05
-1.74653e-05
-7.44039e-05
-2.27941e-05
-6.56032e-05
-2.93799e-05
-5.50522e-05
-3.62564e-05
-4.28928e-05
-4.24649e-05
-2.95407e-05
-4.59765e-05
-1.59598e-05
-4.31814e-05
-3.31739e-06
-2.83898e-05
5.32662e-06
-4.90836e-06
2.7087e-05
-7.83459e-06
9.13525e-06
-8.95584e-06
2.96557e-08
-9.16932e-06
-2.57695e-06
-9.02678e-06
-2.87536e-06
-8.75502e-06
-2.55397e-06
-8.44699e-06
-2.13665e-06
-8.14207e-06
-1.76046e-06
-7.85691e-06
-1.44988e-06
-7.59788e-06
-1.19868e-06
-7.36645e-06
-9.96117e-07
-7.16177e-06
-8.31893e-07
-6.98194e-06
-6.97665e-07
-6.82472e-06
-5.86925e-07
-6.68779e-06
-4.947e-07
-6.56902e-06
-4.17159e-07
-6.46642e-06
-3.51365e-07
-6.37825e-06
-2.95045e-07
-6.30299e-06
-2.46421e-07
-6.23929e-06
-2.04099e-07
-6.18599e-06
-1.66976e-07
-6.14207e-06
-1.34156e-07
-6.10665e-06
-1.04921e-07
-6.07894e-06
-7.86786e-08
-6.05822e-06
-5.49449e-08
-6.04396e-06
-3.33425e-08
-6.03691e-06
-1.36358e-08
-6.03532e-06
3.40477e-09
-6.0382e-06
2.17607e-08
-6.04554e-06
3.68706e-08
-6.0574e-06
5.11159e-08
-6.07363e-06
6.46298e-08
-6.09404e-06
7.74908e-08
-6.11848e-06
8.9789e-08
-6.14681e-06
1.01624e-07
-6.17891e-06
1.13069e-07
-6.21469e-06
1.24226e-07
-6.25407e-06
1.35152e-07
-6.29702e-06
1.45926e-07
-6.34348e-06
1.56596e-07
-6.39344e-06
1.67225e-07
-6.44691e-06
1.77871e-07
-6.50388e-06
1.88563e-07
-6.5644e-06
1.9937e-07
-6.62849e-06
2.10319e-07
-6.69623e-06
2.21477e-07
-6.76768e-06
2.32865e-07
-6.84291e-06
2.44536e-07
-6.92203e-06
2.56529e-07
-7.00515e-06
2.689e-07
-7.0924e-06
2.81684e-07
-7.1839e-06
2.94932e-07
-7.27983e-06
3.08698e-07
-7.38035e-06
3.23028e-07
-7.48567e-06
3.3798e-07
-7.59599e-06
3.53612e-07
-7.71153e-06
3.69974e-07
-7.83256e-06
3.87158e-07
-7.95934e-06
4.05196e-07
-8.09217e-06
4.24199e-07
-8.2314e-06
4.44236e-07
-8.37735e-06
4.6538e-07
-8.53042e-06
4.87752e-07
-8.69103e-06
5.11445e-07
-8.85964e-06
5.36568e-07
-9.03674e-06
5.63259e-07
-9.22288e-06
5.91645e-07
-9.41864e-06
6.21877e-07
-9.62469e-06
6.54115e-07
-9.8417e-06
6.88527e-07
-1.00705e-05
7.25359e-07
-1.03119e-05
7.64799e-07
-1.05668e-05
8.0707e-07
-1.08363e-05
8.52468e-07
-1.11214e-05
9.01269e-07
-1.14236e-05
9.53888e-07
-1.1744e-05
1.01061e-06
-1.20844e-05
1.07193e-06
-1.24463e-05
1.13826e-06
-1.28317e-05
1.21025e-06
-1.32428e-05
1.28845e-06
-1.3682e-05
1.37359e-06
-1.4152e-05
1.46654e-06
-1.4656e-05
1.56825e-06
-1.51976e-05
1.67987e-06
-1.57809e-05
1.80286e-06
-1.64109e-05
1.93893e-06
-1.70932e-05
2.09018e-06
-1.7835e-05
2.25944e-06
-1.86447e-05
2.45027e-06
-1.9533e-05
2.66745e-06
-2.05135e-05
2.91739e-06
-2.1603e-05
3.20818e-06
-2.28227e-05
3.55e-06
-2.41971e-05
3.95306e-06
-2.57513e-05
4.42374e-06
-2.75044e-05
4.95798e-06
-2.94595e-05
5.53041e-06
-3.15914e-05
6.08672e-06
-3.38375e-05
6.54093e-06
-3.60981e-05
6.78785e-06
-3.8246e-05
6.72522e-06
-4.01473e-05
6.28284e-06
-4.16834e-05
5.44449e-06
-4.27727e-05
4.25694e-06
-4.33839e-05
2.82233e-06
-4.35401e-05
1.27648e-06
-4.33073e-05
-2.70784e-07
-4.27884e-05
-1.67691e-06
-4.21071e-05
-2.82422e-06
-4.13661e-05
-3.66778e-06
-4.06408e-05
-4.21501e-06
-3.99849e-05
-4.49546e-06
-3.94377e-05
-4.54287e-06
-3.90327e-05
-4.38583e-06
-3.88037e-05
-4.0427e-06
-3.87895e-05
-3.52275e-06
-3.90359e-05
-2.82773e-06
-3.95959e-05
-1.95624e-06
-4.05321e-05
-9.00978e-07
-4.19e-05
3.30357e-07
-4.36105e-05
1.62819e-06
-4.5507e-05
2.89062e-06
-4.75515e-05
4.10098e-06
-4.9768e-05
5.24854e-06
-5.21542e-05
6.29199e-06
-5.4689e-05
7.19027e-06
-5.73388e-05
7.91394e-06
-6.00597e-05
8.44726e-06
-6.27996e-05
8.78783e-06
-6.55012e-05
8.94328e-06
-6.81059e-05
8.92731e-06
-7.05586e-05
8.7565e-06
-7.28122e-05
8.44806e-06
-7.48317e-05
8.01904e-06
-7.65949e-05
7.48685e-06
-7.80936e-05
6.87008e-06
-7.9332e-05
6.18976e-06
-8.03243e-05
5.46961e-06
-8.10931e-05
4.73555e-06
-8.16663e-05
4.01415e-06
-8.20749e-05
3.32986e-06
-8.23506e-05
2.70303e-06
-8.25247e-05
2.15065e-06
-8.26269e-05
1.68558e-06
-8.2685e-05
1.31542e-06
-8.2723e-05
1.04266e-06
-8.27612e-05
8.65409e-07
-8.28154e-05
7.79043e-07
-8.28976e-05
7.77474e-07
-8.30172e-05
8.54098e-07
-8.31804e-05
1.00174e-06
-8.33919e-05
1.21343e-06
-8.36545e-05
1.48149e-06
-8.39696e-05
1.79752e-06
-8.43368e-05
2.15261e-06
-8.47542e-05
2.5375e-06
-8.52183e-05
2.94244e-06
-8.57238e-05
3.3577e-06
-8.6265e-05
3.77365e-06
-8.68339e-05
4.18059e-06
-8.74222e-05
4.56941e-06
-8.80204e-05
4.93191e-06
-8.86186e-05
5.26062e-06
-8.92068e-05
5.54959e-06
-8.97751e-05
5.79349e-06
-9.03138e-05
5.98853e-06
-9.08137e-05
6.13243e-06
-9.12668e-05
6.22424e-06
-9.16658e-05
6.26414e-06
-9.2005e-05
6.25334e-06
-9.22798e-05
6.19375e-06
-9.24867e-05
6.08747e-06
-9.26233e-05
5.93719e-06
-9.26887e-05
5.74482e-06
-9.26828e-05
5.5113e-06
-9.26056e-05
5.23603e-06
-9.24577e-05
4.91656e-06
-9.22394e-05
4.5476e-06
-9.19509e-05
4.12178e-06
-9.15918e-05
3.62869e-06
-9.11612e-05
3.05439e-06
-9.06568e-05
2.378e-06
-9.00685e-05
1.55983e-06
-8.93681e-05
5.20468e-07
-8.85984e-05
-7.76623e-07
-8.77007e-05
-2.41586e-06
-8.65688e-05
-4.55088e-06
-8.50528e-05
-7.31567e-06
-8.29563e-05
-1.08675e-05
-8.008e-05
-1.54722e-05
-7.63461e-05
-2.11995e-05
-7.11519e-05
-2.79884e-05
-6.44664e-05
-3.60653e-05
-5.60347e-05
-4.46876e-05
-4.57783e-05
-5.27204e-05
-3.38519e-05
-5.79019e-05
-2.07669e-05
-5.62656e-05
-8.11619e-06
-4.10402e-05
-2.78998e-06
-4.26426e-06
3.13538e-05
-7.02797e-06
1.18996e-05
-8.29637e-06
1.29809e-06
-8.72377e-06
-2.14968e-06
-8.78465e-06
-2.81464e-06
-8.68799e-06
-2.65078e-06
-8.52475e-06
-2.30005e-06
-8.33669e-06
-1.9487e-06
-8.14447e-06
-1.64223e-06
-7.95876e-06
-1.38454e-06
-7.78494e-06
-1.17009e-06
-7.62547e-06
-9.91516e-07
-7.48115e-06
-8.42136e-07
-7.35184e-06
-7.16381e-07
-7.23692e-06
-6.09776e-07
-7.13549e-06
-5.18741e-07
-7.04658e-06
-4.40423e-07
-6.96922e-06
-3.72555e-07
-6.90247e-06
-3.13322e-07
-6.84546e-06
-2.61258e-07
-6.7974e-06
-2.15189e-07
-6.75756e-06
-1.74154e-07
-6.72526e-06
-1.37371e-07
-6.6999e-06
-1.04183e-07
-6.68094e-06
-7.40631e-08
-6.66791e-06
-4.65189e-08
-6.66068e-06
-2.10166e-08
-6.6622e-06
4.76461e-09
-6.66502e-06
2.4437e-08
-6.67229e-06
4.39874e-08
-6.68396e-06
6.26342e-08
-6.69989e-06
8.0406e-08
-6.71991e-06
9.73575e-08
-6.7439e-06
1.13627e-07
-6.77174e-06
1.29313e-07
-6.80336e-06
1.44539e-07
-6.83867e-06
1.59389e-07
-6.87764e-06
1.73968e-07
-6.92022e-06
1.88353e-07
-6.96639e-06
2.02615e-07
-7.01614e-06
2.16833e-07
-7.06949e-06
2.31064e-07
-7.12645e-06
2.45376e-07
-7.18706e-06
2.59832e-07
-7.25137e-06
2.74476e-07
-7.31943e-06
2.8939e-07
-7.39133e-06
3.04612e-07
-7.46714e-06
3.20195e-07
-7.54698e-06
3.36223e-07
-7.63096e-06
3.52728e-07
-7.71921e-06
3.69792e-07
-7.81189e-06
3.87461e-07
-7.90915e-06
4.05808e-07
-8.01118e-06
4.2491e-07
-8.11817e-06
4.44823e-07
-8.23034e-06
4.6564e-07
-8.34795e-06
4.87431e-07
-8.47123e-06
5.10291e-07
-8.60049e-06
5.34314e-07
-8.73603e-06
5.59589e-07
-8.87818e-06
5.86244e-07
-9.02734e-06
6.14389e-07
-9.18387e-06
6.44141e-07
-9.34824e-06
6.75665e-07
-9.52091e-06
7.09094e-07
-9.70239e-06
7.44599e-07
-9.89326e-06
7.82373e-07
-1.00941e-05
8.22596e-07
-1.03057e-05
8.65527e-07
-1.05287e-05
9.11386e-07
-1.07639e-05
9.60433e-07
-1.10122e-05
1.01299e-06
-1.12747e-05
1.06939e-06
-1.15523e-05
1.12996e-06
-1.18464e-05
1.19519e-06
-1.21581e-05
1.2655e-06
-1.24891e-05
1.34143e-06
-1.28409e-05
1.42359e-06
-1.32154e-05
1.51263e-06
-1.36146e-05
1.60933e-06
-1.40408e-05
1.71456e-06
-1.44968e-05
1.82941e-06
-1.49854e-05
1.955e-06
-1.55101e-05
2.09284e-06
-1.60749e-05
2.24456e-06
-1.66844e-05
2.41224e-06
-1.73441e-05
2.59841e-06
-1.80603e-05
2.80631e-06
-1.8841e-05
3.03997e-06
-1.96957e-05
3.30487e-06
-2.06365e-05
3.60813e-06
-2.16784e-05
3.95907e-06
-2.28397e-05
4.36931e-06
-2.41426e-05
4.85256e-06
-2.5611e-05
5.42063e-06
-2.72664e-05
6.07771e-06
-2.91209e-05
6.80968e-06
-3.11664e-05
7.57112e-06
-3.33654e-05
8.27738e-06
-3.56444e-05
8.80737e-06
-3.78988e-05
9.02448e-06
-4.00061e-05
8.80946e-06
-4.18475e-05
8.09619e-06
-4.33296e-05
6.89508e-06
-4.44034e-05
5.29765e-06
-4.50748e-05
3.46126e-06
-4.54023e-05
1.57441e-06
-4.5488e-05
-2.09955e-07
-4.54353e-05
-1.74881e-06
-4.53422e-05
-2.93145e-06
-4.52788e-05
-3.74104e-06
-4.52929e-05
-4.20725e-06
-4.54193e-05
-4.3729e-06
-4.56865e-05
-4.27781e-06
-4.61224e-05
-3.95083e-06
-4.67565e-05
-3.40857e-06
-4.76181e-05
-2.66039e-06
-4.87305e-05
-1.71405e-06
-5.01085e-05
-5.76475e-07
-5.17184e-05
7.11266e-07
-5.34372e-05
2.05176e-06
-5.5203e-05
3.39667e-06
-5.70603e-05
4.75063e-06
-5.90335e-05
6.07647e-06
-6.11066e-05
7.32363e-06
-6.32533e-05
8.4403e-06
-6.54428e-05
9.3813e-06
-6.76404e-05
1.01127e-05
-6.98059e-05
1.06143e-05
-7.18955e-05
1.08794e-05
-7.38635e-05
1.09136e-05
-7.56649e-05
1.07315e-05
-7.72598e-05
1.03546e-05
-7.86162e-05
9.80798e-06
-7.97134e-05
9.1198e-06
-8.0543e-05
8.3202e-06
-8.11106e-05
7.44113e-06
-8.1434e-05
6.51648e-06
-8.1542e-05
5.58075e-06
-8.14714e-05
4.66729e-06
-8.12634e-05
3.80808e-06
-8.09618e-05
3.02969e-06
-8.06067e-05
2.34883e-06
-8.02342e-05
1.7784e-06
-7.98761e-05
1.32722e-06
-7.95579e-05
9.96522e-07
-7.92977e-05
7.81288e-07
-7.9106e-05
6.72291e-07
-7.89859e-05
6.57174e-07
-7.89349e-05
7.24627e-07
-7.89485e-05
8.65595e-07
-7.90203e-05
1.0714e-06
-7.91428e-05
1.3338e-06
-7.93084e-05
1.64494e-06
-7.95093e-05
1.9964e-06
-7.97378e-05
2.3791e-06
-7.99856e-05
2.78353e-06
-8.0245e-05
3.20018e-06
-8.05079e-05
3.61896e-06
-8.0766e-05
4.03028e-06
-8.10112e-05
4.42442e-06
-8.12355e-05
4.79261e-06
-8.14314e-05
5.12672e-06
-8.15913e-05
5.41987e-06
-8.17089e-05
5.6664e-06
-8.1778e-05
5.86207e-06
-8.17939e-05
6.00403e-06
-8.17526e-05
6.09094e-06
-8.16515e-05
6.12292e-06
-8.1489e-05
6.10162e-06
-8.12651e-05
6.02952e-06
-8.09809e-05
5.90969e-06
-8.06391e-05
5.74595e-06
-8.02435e-05
5.54181e-06
-7.97988e-05
5.30037e-06
-7.93107e-05
5.02349e-06
-7.87855e-05
4.71124e-06
-7.82299e-05
4.36124e-06
-7.76509e-05
3.96903e-06
-7.70566e-05
3.52762e-06
-7.64554e-05
3.02766e-06
-7.58563e-05
2.45543e-06
-7.52686e-05
1.79033e-06
-7.46989e-05
9.90108e-07
-7.41559e-05
-2.31735e-08
-7.36672e-05
-1.26557e-06
-7.31941e-05
-2.88933e-06
-7.26896e-05
-5.05593e-06
-7.2066e-05
-7.93978e-06
-7.11758e-05
-1.17584e-05
-6.98477e-05
-1.68007e-05
-6.78319e-05
-2.32157e-05
-6.47268e-05
-3.10937e-05
-6.03159e-05
-4.04762e-05
-5.4187e-05
-5.08163e-05
-4.60292e-05
-6.08777e-05
-3.57015e-05
-6.8229e-05
-2.34781e-05
-6.84881e-05
-1.05741e-05
-5.39436e-05
-1.33645e-05
-3.78595e-06
3.51426e-05
-6.42075e-06
1.45352e-05
-7.71134e-06
2.58869e-06
-8.25247e-06
-1.60863e-06
-8.43329e-06
-2.63393e-06
-8.44939e-06
-2.63484e-06
-8.3868e-06
-2.36277e-06
-8.28578e-06
-2.04989e-06
-8.16706e-06
-1.76109e-06
-8.04248e-06
-1.50927e-06
-7.91901e-06
-1.29371e-06
-7.80082e-06
-1.10986e-06
-7.69029e-06
-9.52818e-07
-7.58864e-06
-8.18176e-07
-7.49639e-06
-7.02177e-07
-7.41358e-06
-6.01705e-07
-7.33999e-06
-5.14169e-07
-7.27524e-06
-4.37452e-07
-7.2189e-06
-3.69811e-07
-7.17049e-06
-3.09821e-07
-7.12953e-06
-2.56301e-07
-7.09555e-06
-2.08289e-07
-7.0681e-06
-1.6497e-07
-7.04674e-06
-1.25698e-07
-7.03104e-06
-8.99161e-08
-7.02062e-06
-5.70863e-08
-7.01565e-06
-2.61375e-08
-7.01842e-06
7.37543e-09
-7.02311e-06
2.89765e-08
-7.03148e-06
5.22081e-08
-7.04403e-06
7.50368e-08
-7.06061e-06
9.68351e-08
-7.0811e-06
1.17687e-07
-7.10537e-06
1.37746e-07
-7.13335e-06
1.57148e-07
-7.16499e-06
1.76027e-07
-7.20024e-06
1.94488e-07
-7.23908e-06
2.12654e-07
-7.28147e-06
2.30596e-07
-7.32743e-06
2.48419e-07
-7.37694e-06
2.66197e-07
-7.43004e-06
2.84013e-07
-7.48676e-06
3.01937e-07
-7.54711e-06
3.2004e-07
-7.6112e-06
3.38406e-07
-7.67904e-06
3.5709e-07
-7.75076e-06
3.76175e-07
-7.82643e-06
3.95718e-07
-7.90616e-06
4.15805e-07
-7.99007e-06
4.36492e-07
-8.07831e-06
4.57875e-07
-8.17102e-06
4.80021e-07
-8.26837e-06
5.03013e-07
-8.37054e-06
5.26936e-07
-8.47775e-06
5.51885e-07
-8.59021e-06
5.77949e-07
-8.70817e-06
6.05242e-07
-8.83188e-06
6.3386e-07
-8.96166e-06
6.63944e-07
-9.0978e-06
6.95584e-07
-9.24064e-06
7.28943e-07
-9.39058e-06
7.64174e-07
-9.548e-06
8.01421e-07
-9.71335e-06
8.40872e-07
-9.88712e-06
8.82722e-07
-1.00698e-05
9.27167e-07
-1.02621e-05
9.74474e-07
-1.04645e-05
1.02485e-06
-1.06777e-05
1.07859e-06
-1.09025e-05
1.13602e-06
-1.11397e-05
1.19751e-06
-1.13902e-05
1.26338e-06
-1.16551e-05
1.33409e-06
-1.19353e-05
1.41011e-06
-1.22323e-05
1.49199e-06
-1.25472e-05
1.58031e-06
-1.28817e-05
1.67576e-06
-1.32373e-05
1.7791e-06
-1.36161e-05
1.89123e-06
-1.402e-05
2.0131e-06
-1.44515e-05
2.14595e-06
-1.49133e-05
2.29107e-06
-1.54085e-05
2.45007e-06
-1.59406e-05
2.62482e-06
-1.65137e-05
2.81755e-06
-1.71327e-05
3.03104e-06
-1.7803e-05
3.26866e-06
-1.85315e-05
3.53462e-06
-1.93261e-05
3.83442e-06
-2.01965e-05
4.17521e-06
-2.11548e-05
4.56629e-06
-2.22156e-05
5.01968e-06
-2.33963e-05
5.54975e-06
-2.47169e-05
6.17257e-06
-2.61977e-05
6.90045e-06
-2.78557e-05
7.73377e-06
-2.96977e-05
8.648e-06
-3.17122e-05
9.57923e-06
-3.38618e-05
1.04165e-05
-3.60803e-05
1.10103e-05
-3.82773e-05
1.12e-05
-4.03504e-05
1.08554e-05
-4.22043e-05
9.91836e-06
-4.37713e-05
8.4276e-06
-4.5026e-05
6.51769e-06
-4.59901e-05
4.39312e-06
-4.67241e-05
2.2807e-06
-4.73177e-05
3.61988e-07
-4.78574e-05
-1.22482e-06
-4.83955e-05
-2.40377e-06
-4.89856e-05
-3.15752e-06
-4.96619e-05
-3.53464e-06
-5.04493e-05
-3.58731e-06
-5.13678e-05
-3.35987e-06
-5.24331e-05
-2.88526e-06
-5.36555e-05
-2.1853e-06
-5.50342e-05
-1.28038e-06
-5.65505e-05
-1.95972e-07
-5.81472e-05
1.02222e-06
-5.97498e-05
2.3161e-06
-6.1362e-05
3.66642e-06
-6.30259e-05
5.06317e-06
-6.47381e-05
6.4655e-06
-6.6479e-05
7.81997e-06
-6.82224e-05
9.06976e-06
-6.99396e-05
1.01603e-05
-7.15998e-05
1.10444e-05
-7.317e-05
1.16863e-05
-7.46161e-05
1.20641e-05
-7.59029e-05
1.21704e-05
-7.69958e-05
1.20111e-05
-7.78627e-05
1.16036e-05
-7.84778e-05
1.09751e-05
-7.88234e-05
1.01592e-05
-7.88931e-05
9.19508e-06
-7.86933e-05
8.12556e-06
-7.82432e-05
6.99603e-06
-7.75749e-05
5.85263e-06
-7.67318e-05
4.74157e-06
-7.57653e-05
3.70399e-06
-7.47313e-05
2.77652e-06
-7.36911e-05
1.99111e-06
-7.26975e-05
1.35607e-06
-7.17904e-05
8.71268e-07
-7.10019e-05
5.3813e-07
-7.03514e-05
3.44815e-07
-6.98453e-05
2.73472e-07
-6.94794e-05
3.04128e-07
-6.92406e-05
4.15944e-07
-6.91128e-05
5.94282e-07
-6.90781e-05
8.283e-07
-6.91168e-05
1.10725e-06
-6.92096e-05
1.42382e-06
-6.9339e-05
1.77169e-06
-6.94893e-05
2.14408e-06
-6.96462e-05
2.53348e-06
-6.97966e-05
2.93177e-06
-6.99294e-05
3.3308e-06
-7.0034e-05
3.7217e-06
-7.01012e-05
4.09584e-06
-7.01232e-05
4.44484e-06
-7.0093e-05
4.76105e-06
-7.00047e-05
5.03729e-06
-6.98535e-05
5.26767e-06
-6.96354e-05
5.44768e-06
-6.93483e-05
5.57437e-06
-6.89908e-05
5.64617e-06
-6.85631e-05
5.66289e-06
-6.80663e-05
5.62607e-06
-6.7503e-05
5.53848e-06
-6.68775e-05
5.40408e-06
-6.61946e-05
5.22706e-06
-6.54609e-05
5.01251e-06
-6.46839e-05