/*--------------------------------*- C++ -*----------------------------------*\
  =========                 |
  \\      /  F ield         | OpenFOAM: The Open Source CFD Toolbox
   \\    /   O peration     | Website:  https://openfoam.org
    \\  /    A nd           | Version:  12
     \\/     M anipulation  |
\*---------------------------------------------------------------------------*/
FoamFile
{
    format      ascii;
    class       volScalarField;
    location    "10.02";
    object      T;
}
// * * * * * * * * * * * * * * * * * * * * * * * * * * * * * * * * * * * * * //

dimensions      [0 0 0 1 0 0 0];

internalField   nonuniform List<scalar> 
40000
(
298.487
294.3
293.407
293.195
293.139
293.123
293.118
293.116
293.115
293.115
293.115
293.115
293.115
293.115
293.115
293.115
293.115
293.115
293.115
293.115
293.115
293.115
293.115
293.115
293.115
293.115
293.115
293.115
293.115
293.115
293.115
293.115
293.115
293.115
293.115
293.115
293.115
293.115
293.115
293.115
293.115
293.115
293.115
293.115
293.115
293.115
293.115
293.115
293.115
293.115
293.115
293.115
293.115
293.115
293.115
293.115
293.115
293.115
293.115
293.115
293.115
293.115
293.115
293.115
293.115
293.115
293.115
293.115
293.115
293.115
293.115
293.115
293.115
293.115
293.115
293.115
293.115
293.115
293.115
293.115
293.115
293.115
293.115
293.115
293.115
293.115
293.115
293.115
293.115
293.115
293.115
293.115
293.115
293.115
293.115
293.115
293.115
293.115
293.114
293.113
293.11
293.105
293.096
293.082
293.061
293.031
292.992
292.942
292.88
292.804
292.716
292.618
292.514
292.409
292.306
292.207
292.114
292.029
291.952
291.884
291.822
291.768
291.721
291.678
291.637
291.597
291.558
291.517
291.474
291.428
291.377
291.321
291.26
291.195
291.125
291.05
290.972
290.892
290.81
290.73
290.652
290.582
290.52
290.468
290.428
290.398
290.377
290.363
290.354
290.348
290.343
290.339
290.336
290.332
290.328
290.324
290.319
290.314
290.308
290.302
290.295
290.288
290.281
290.273
290.265
290.256
290.248
290.239
290.23
290.22
290.211
290.202
290.192
290.183
290.173
290.164
290.154
290.144
290.134
290.125
290.115
290.105
290.095
290.084
290.074
290.063
290.052
290.041
290.029
290.013
289.992
289.964
289.924
289.873
289.805
289.717
289.601
289.443
289.156
288.78
298.76
294.313
293.384
293.181
293.133
293.12
293.117
293.116
293.115
293.115
293.115
293.115
293.115
293.115
293.115
293.115
293.115
293.115
293.115
293.115
293.115
293.115
293.115
293.115
293.115
293.115
293.115
293.115
293.115
293.115
293.115
293.115
293.115
293.115
293.115
293.115
293.115
293.115
293.115
293.115
293.115
293.115
293.115
293.115
293.115
293.115
293.115
293.115
293.115
293.115
293.115
293.115
293.115
293.115
293.115
293.115
293.115
293.115
293.115
293.115
293.115
293.115
293.115
293.115
293.115
293.115
293.115
293.115
293.115
293.115
293.115
293.115
293.115
293.115
293.115
293.115
293.115
293.115
293.115
293.115
293.115
293.115
293.115
293.115
293.115
293.115
293.115
293.115
293.115
293.115
293.115
293.115
293.115
293.115
293.115
293.115
293.114
293.112
293.108
293.098
293.083
293.057
293.017
292.96
292.885
292.791
292.68
292.554
292.415
292.266
292.117
291.976
291.848
291.736
291.64
291.559
291.493
291.439
291.396
291.362
291.337
291.32
291.307
291.296
291.284
291.269
291.248
291.217
291.175
291.121
291.056
290.985
290.913
290.844
290.779
290.719
290.665
290.618
290.576
290.541
290.512
290.491
290.474
290.462
290.453
290.447
290.443
290.439
290.435
290.432
290.428
290.424
290.421
290.417
290.413
290.409
290.405
290.401
290.397
290.393
290.39
290.386
290.383
290.381
290.379
290.377
290.375
290.374
290.374
290.374
290.374
290.375
290.377
290.378
290.381
290.383
290.386
290.39
290.393
290.398
290.402
290.406
290.41
290.414
290.418
290.422
290.424
290.424
290.414
290.396
290.367
290.324
290.261
290.178
290.065
289.914
289.717
289.461
289.13
288.674
299.078
294.421
293.403
293.182
293.132
293.12
293.116
293.116
293.115
293.115
293.115
293.115
293.115
293.115
293.115
293.115
293.115
293.115
293.115
293.115
293.115
293.115
293.115
293.115
293.115
293.115
293.115
293.115
293.115
293.115
293.115
293.115
293.115
293.115
293.115
293.115
293.115
293.115
293.115
293.115
293.115
293.115
293.115
293.115
293.115
293.115
293.115
293.115
293.115
293.115
293.115
293.115
293.115
293.115
293.115
293.115
293.115
293.115
293.115
293.115
293.115
293.115
293.115
293.115
293.115
293.115
293.115
293.115
293.115
293.115
293.115
293.115
293.115
293.115
293.115
293.115
293.115
293.115
293.115
293.115
293.115
293.115
293.115
293.115
293.115
293.115
293.115
293.115
293.115
293.115
293.115
293.115
293.115
293.115
293.114
293.113
293.109
293.101
293.085
293.058
293.013
292.946
292.852
292.729
292.579
292.408
292.222
292.027
291.834
291.655
291.498
291.367
291.26
291.176
291.11
291.061
291.025
291
290.985
290.977
290.976
290.979
290.982
290.987
290.99
290.987
290.974
290.948
290.911
290.866
290.819
290.773
290.732
290.697
290.669
290.647
290.632
290.621
290.616
290.613
290.613
290.614
290.616
290.618
290.62
290.62
290.62
290.619
290.617
290.614
290.611
290.608
290.605
290.601
290.598
290.596
290.594
290.593
290.592
290.592
290.594
290.596
290.6
290.604
290.61
290.617
290.625
290.634
290.644
290.655
290.667
290.68
290.694
290.708
290.724
290.74
290.756
290.773
290.789
290.806
290.823
290.838
290.853
290.867
290.878
290.887
290.891
290.884
290.869
290.842
290.8
290.739
290.653
290.537
290.379
290.172
289.903
289.562
289.143
288.594
299.371
294.547
293.438
293.191
293.134
293.12
293.116
293.116
293.115
293.115
293.115
293.115
293.115
293.115
293.115
293.115
293.115
293.115
293.115
293.115
293.115
293.115
293.115
293.115
293.115
293.115
293.115
293.115
293.115
293.115
293.115
293.115
293.115
293.115
293.115
293.115
293.115
293.115
293.115
293.115
293.115
293.115
293.115
293.115
293.115
293.115
293.115
293.115
293.115
293.115
293.115
293.115
293.115
293.115
293.115
293.115
293.115
293.115
293.115
293.115
293.115
293.115
293.115
293.115
293.115
293.115
293.115
293.115
293.115
293.115
293.115
293.115
293.115
293.115
293.115
293.115
293.115
293.115
293.115
293.115
293.115
293.115
293.115
293.115
293.115
293.115
293.115
293.115
293.115
293.115
293.115
293.115
293.115
293.114
293.112
293.108
293.099
293.082
293.051
292.998
292.918
292.804
292.655
292.472
292.264
292.04
291.812
291.595
291.402
291.241
291.112
291.015
290.942
290.89
290.853
290.828
290.813
290.805
290.804
290.806
290.813
290.822
290.833
290.843
290.848
290.847
290.838
290.822
290.803
290.783
290.765
290.753
290.746
290.745
290.749
290.758
290.77
290.784
290.799
290.815
290.829
290.842
290.853
290.861
290.868
290.872
290.873
290.874
290.872
290.87
290.868
290.865
290.862
290.859
290.857
290.856
290.856
290.857
290.859
290.864
290.87
290.878
290.887
290.898
290.911
290.926
290.942
290.96
290.979
290.999
291.022
291.045
291.068
291.093
291.118
291.144
291.169
291.194
291.219
291.243
291.266
291.287
291.306
291.322
291.334
291.341
291.339
291.328
291.307
291.273
291.22
291.145
291.04
290.898
290.706
290.454
290.13
289.722
289.218
288.585
299.638
294.675
293.482
293.203
293.137
293.121
293.117
293.116
293.115
293.115
293.115
293.115
293.115
293.115
293.115
293.115
293.115
293.115
293.115
293.115
293.115
293.115
293.115
293.115
293.115
293.115
293.115
293.115
293.115
293.115
293.115
293.115
293.115
293.115
293.115
293.115
293.115
293.115
293.115
293.115
293.115
293.115
293.115
293.115
293.115
293.115
293.115
293.115
293.115
293.115
293.115
293.115
293.115
293.115
293.115
293.115
293.115
293.115
293.115
293.115
293.115
293.115
293.115
293.115
293.115
293.115
293.115
293.115
293.115
293.115
293.115
293.115
293.115
293.115
293.115
293.115
293.115
293.115
293.115
293.115
293.115
293.115
293.115
293.115
293.115
293.115
293.115
293.115
293.115
293.115
293.115
293.115
293.114
293.113
293.11
293.103
293.088
293.06
293.013
292.935
292.822
292.669
292.477
292.253
292.01
291.762
291.527
291.32
291.152
291.024
290.93
290.864
290.819
290.79
290.772
290.761
290.756
290.756
290.759
290.766
290.775
290.787
290.798
290.807
290.813
290.817
290.819
290.821
290.823
290.829
290.84
290.856
290.877
290.902
290.93
290.961
290.992
291.023
291.052
291.08
291.104
291.124
291.141
291.154
291.163
291.168
291.171
291.171
291.169
291.166
291.162
291.158
291.154
291.151
291.149
291.149
291.15
291.153
291.158
291.166
291.175
291.186
291.2
291.216
291.235
291.255
291.278
291.302
291.328
291.355
291.384
291.414
291.444
291.475
291.506
291.537
291.567
291.597
291.626
291.654
291.679
291.702
291.722
291.738
291.749
291.752
291.748
291.735
291.711
291.672
291.613
291.528
291.409
291.247
291.03
290.744
290.377
289.916
289.351
288.671
299.878
294.796
293.525
293.215
293.14
293.122
293.117
293.116
293.115
293.115
293.115
293.115
293.115
293.115
293.115
293.115
293.115
293.115
293.115
293.115
293.115
293.115
293.115
293.115
293.115
293.115
293.115
293.115
293.115
293.115
293.115
293.115
293.115
293.115
293.115
293.115
293.115
293.115
293.115
293.115
293.115
293.115
293.115
293.115
293.115
293.115
293.115
293.115
293.115
293.115
293.115
293.115
293.115
293.115
293.115
293.115
293.115
293.115
293.115
293.115
293.115
293.115
293.115
293.115
293.115
293.115
293.115
293.115
293.115
293.115
293.115
293.115
293.115
293.115
293.115
293.115
293.115
293.115
293.115
293.115
293.115
293.115
293.115
293.115
293.115
293.115
293.115
293.115
293.115
293.115
293.115
293.115
293.114
293.112
293.108
293.098
293.079
293.042
292.981
292.885
292.747
292.566
292.346
292.098
291.84
291.588
291.364
291.178
291.037
290.937
290.869
290.826
290.8
290.784
290.777
290.774
290.775
290.779
290.786
290.795
290.805
290.816
290.829
290.841
290.855
290.869
290.885
290.904
290.927
290.955
290.988
291.026
291.069
291.113
291.16
291.207
291.253
291.297
291.338
291.375
291.406
291.433
291.453
291.468
291.476
291.481
291.481
291.479
291.474
291.468
291.461
291.455
291.449
291.444
291.442
291.44
291.441
291.445
291.451
291.46
291.472
291.486
291.502
291.521
291.543
291.567
291.594
291.622
291.651
291.683
291.716
291.749
291.783
291.817
291.851
291.886
291.919
291.952
291.983
292.012
292.039
292.063
292.084
292.1
292.11
292.111
292.107
292.094
292.07
292.031
291.97
291.88
291.753
291.577
291.34
291.028
290.625
290.117
289.493
288.739
300.095
294.912
293.567
293.229
293.144
293.123
293.117
293.116
293.115
293.115
293.115
293.115
293.115
293.115
293.115
293.115
293.115
293.115
293.115
293.115
293.115
293.115
293.115
293.115
293.115
293.115
293.115
293.115
293.115
293.115
293.115
293.115
293.115
293.115
293.115
293.115
293.115
293.115
293.115
293.115
293.115
293.115
293.115
293.115
293.115
293.115
293.115
293.115
293.115
293.115
293.115
293.115
293.115
293.115
293.115
293.115
293.115
293.115
293.115
293.115
293.115
293.115
293.115
293.115
293.115
293.115
293.115
293.115
293.115
293.115
293.115
293.115
293.115
293.115
293.115
293.115
293.115
293.115
293.115
293.115
293.115
293.115
293.115
293.115
293.115
293.115
293.115
293.115
293.115
293.115
293.115
293.115
293.114
293.111
293.106
293.094
293.072
293.031
292.961
292.853
292.702
292.505
292.27
292.012
291.749
291.504
291.293
291.126
291.005
290.924
290.873
290.844
290.829
290.823
290.823
290.826
290.832
290.84
290.85
290.861
290.872
290.887
290.903
290.923
290.945
290.971
291.001
291.036
291.076
291.121
291.172
291.226
291.283
291.343
291.403
291.461
291.518
291.571
291.62
291.663
291.701
291.733
291.757
291.774
291.783
291.785
291.781
291.773
291.762
291.751
291.74
291.73
291.72
291.712
291.707
291.704
291.703
291.706
291.711
291.72
291.731
291.747
291.764
291.784
291.807
291.833
291.861
291.89
291.921
291.954
291.988
292.022
292.057
292.092
292.128
292.164
292.199
292.232
292.265
292.295
292.324
292.35
292.372
292.39
292.401
292.405
292.404
292.396
292.376
292.34
292.282
292.193
292.063
291.88
291.631
291.299
290.865
290.312
289.624
288.784
300.292
295.021
293.608
293.243
293.149
293.124
293.118
293.116
293.115
293.115
293.115
293.115
293.115
293.115
293.115
293.115
293.115
293.115
293.115
293.115
293.115
293.115
293.115
293.115
293.115
293.115
293.115
293.115
293.115
293.115
293.115
293.115
293.115
293.115
293.115
293.115
293.115
293.115
293.115
293.115
293.115
293.115
293.115
293.115
293.115
293.115
293.115
293.115
293.115
293.115
293.115
293.115
293.115
293.115
293.115
293.115
293.115
293.115
293.115
293.115
293.115
293.115
293.115
293.115
293.115
293.115
293.115
293.115
293.115
293.115
293.115
293.115
293.115
293.115
293.115
293.115
293.115
293.115
293.115
293.115
293.115
293.115
293.115
293.115
293.115
293.115
293.115
293.115
293.115
293.115
293.115
293.115
293.114
293.111
293.105
293.094
293.07
293.027
292.955
292.844
292.688
292.486
292.247
291.987
291.727
291.49
291.289
291.135
291.025
290.953
290.911
290.89
290.882
290.882
290.887
290.895
290.906
290.917
290.929
290.944
290.96
290.98
291.004
291.03
291.062
291.098
291.139
291.186
291.238
291.294
291.354
291.418
291.483
291.547
291.611
291.672
291.729
291.781
291.828
291.869
291.905
291.934
291.957
291.974
291.988
291.997
292.002
292.002
291.997
291.989
291.978
291.966
291.955
291.944
291.935
291.93
291.926
291.925
291.928
291.934
291.944
291.957
291.973
291.992
292.013
292.037
292.064
292.092
292.121
292.153
292.185
292.217
292.251
292.284
292.319
292.352
292.386
292.42
292.452
292.484
292.514
292.542
292.568
292.59
292.605
292.618
292.625
292.626
292.617
292.591
292.542
292.46
292.333
292.15
291.895
291.549
291.09
290.495
289.744
288.815
300.472
295.125
293.648
293.257
293.153
293.125
293.118
293.116
293.115
293.115
293.115
293.115
293.115
293.115
293.115
293.115
293.115
293.115
293.115
293.115
293.115
293.115
293.115
293.115
293.115
293.115
293.115
293.115
293.115
293.115
293.115
293.115
293.115
293.115
293.115
293.115
293.115
293.115
293.115
293.115
293.115
293.115
293.115
293.115
293.115
293.115
293.115
293.115
293.115
293.115
293.115
293.115
293.115
293.115
293.115
293.115
293.115
293.115
293.115
293.115
293.115
293.115
293.115
293.115
293.115
293.115
293.115
293.115
293.115
293.115
293.115
293.115
293.115
293.115
293.115
293.115
293.115
293.115
293.115
293.115
293.115
293.115
293.115
293.115
293.115
293.115
293.115
293.115
293.115
293.115
293.115
293.115
293.114
293.111
293.106
293.095
293.073
293.032
292.962
292.855
292.702
292.504
292.269
292.013
291.758
291.526
291.331
291.181
291.075
291.006
290.966
290.946
290.941
290.945
290.954
290.966
290.979
290.994
291.011
291.031
291.053
291.078
291.108
291.142
291.181
291.225
291.273
291.326
291.383
291.442
291.504
291.566
291.627
291.685
291.737
291.785
291.826
291.862
291.891
291.918
291.943
291.969
291.995
292.022
292.048
292.073
292.094
292.113
292.128
292.136
292.14
292.138
292.134
292.128
292.122
292.116
292.111
292.109
292.109
292.111
292.118
292.126
292.139
292.153
292.172
292.192
292.215
292.239
292.264
292.291
292.32
292.349
292.378
292.408
292.438
292.468
292.498
292.529
292.559
292.589
292.618
292.645
292.67
292.694
292.717
292.739
292.759
292.776
292.784
292.776
292.744
292.676
292.558
292.38
292.126
291.773
291.295
290.664
289.852
288.838
300.635
295.223
293.687
293.271
293.158
293.127
293.118
293.116
293.116
293.115
293.115
293.115
293.115
293.115
293.115
293.115
293.115
293.115
293.115
293.115
293.115
293.115
293.115
293.115
293.115
293.115
293.115
293.115
293.115
293.115
293.115
293.115
293.115
293.115
293.115
293.115
293.115
293.115
293.115
293.115
293.115
293.115
293.115
293.115
293.115
293.115
293.115
293.115
293.115
293.115
293.115
293.115
293.115
293.115
293.115
293.115
293.115
293.115
293.115
293.115
293.115
293.115
293.115
293.115
293.115
293.115
293.115
293.115
293.115
293.115
293.115
293.115
293.115
293.115
293.115
293.115
293.115
293.115
293.115
293.115
293.115
293.115
293.115
293.115
293.115
293.115
293.115
293.115
293.115
293.115
293.115
293.115
293.114
293.112
293.108
293.098
293.078
293.042
292.979
292.881
292.739
292.552
292.327
292.079
291.83
291.599
291.403
291.25
291.139
291.066
291.022
291.001
290.995
291
291.01
291.025
291.044
291.063
291.086
291.11
291.138
291.169
291.204
291.242
291.285
291.332
291.383
291.435
291.491
291.546
291.6
291.65
291.696
291.736
291.769
291.794
291.815
291.832
291.852
291.876
291.904
291.936
291.971
292.008
292.046
292.084
292.119
292.151
292.181
292.207
292.227
292.244
292.254
292.259
292.261
292.262
292.262
292.263
292.263
292.265
292.269
292.275
292.284
292.295
292.308
292.324
292.342
292.361
292.383
292.406
292.43
292.454
292.481
292.507
292.533
292.56
292.589
292.617
292.643
292.669
292.693
292.716
292.738
292.76
292.781
292.804
292.829
292.855
292.879
292.893
292.884
292.836
292.735
292.568
292.319
291.967
291.478
290.816
289.948
288.855
300.785
295.315
293.725
293.285
293.162
293.128
293.119
293.116
293.116
293.115
293.115
293.115
293.115
293.115
293.115
293.115
293.115
293.115
293.115
293.115
293.115
293.115
293.115
293.115
293.115
293.115
293.115
293.115
293.115
293.115
293.115
293.115
293.115
293.115
293.115
293.115
293.115
293.115
293.115
293.115
293.115
293.115
293.115
293.115
293.115
293.115
293.115
293.115
293.115
293.115
293.115
293.115
293.115
293.115
293.115
293.115
293.115
293.115
293.115
293.115
293.115
293.115
293.115
293.115
293.115
293.115
293.115
293.115
293.115
293.115
293.115
293.115
293.115
293.115
293.115
293.115
293.115
293.115
293.115
293.115
293.115
293.115
293.115
293.115
293.115
293.115
293.115
293.115
293.115
293.115
293.115
293.115
293.114
293.113
293.109
293.101
293.085
293.055
293.002
292.916
292.79
292.621
292.413
292.177
291.935
291.704
291.504
291.341
291.219
291.134
291.081
291.052
291.041
291.044
291.056
291.073
291.095
291.119
291.146
291.175
291.207
291.242
291.279
291.32
291.364
291.41
291.457
291.505
291.553
291.597
291.637
291.672
291.7
291.719
291.734
291.743
291.752
291.767
291.789
291.818
291.854
291.895
291.941
291.989
292.038
292.085
292.131
292.175
292.214
292.25
292.282
292.311
292.335
292.353
292.368
292.378
292.385
292.391
292.396
292.401
292.407
292.413
292.421
292.43
292.441
292.455
292.47
292.486
292.504
292.524
292.545
292.567
292.59
292.615
292.641
292.666
292.69
292.714
292.736
292.757
292.777
292.796
292.814
292.831
292.849
292.867
292.888
292.911
292.935
292.956
292.967
292.943
292.862
292.71
292.475
292.129
291.635
290.948
290.03
288.869
300.923
295.403
293.762
293.298
293.167
293.13
293.12
293.117
293.116
293.115
293.115
293.115
293.115
293.115
293.115
293.115
293.115
293.115
293.115
293.115
293.115
293.115
293.115
293.115
293.115
293.115
293.115
293.115
293.115
293.115
293.115
293.115
293.115
293.115
293.115
293.115
293.115
293.115
293.115
293.115
293.115
293.115
293.115
293.115
293.115
293.115
293.115
293.115
293.115
293.115
293.115
293.115
293.115
293.115
293.115
293.115
293.115
293.115
293.115
293.115
293.115
293.115
293.115
293.115
293.115
293.115
293.115
293.115
293.115
293.115
293.115
293.115
293.115
293.115
293.115
293.115
293.115
293.115
293.115
293.115
293.115
293.115
293.115
293.115
293.115
293.115
293.115
293.115
293.115
293.115
293.115
293.115
293.114
293.113
293.11
293.105
293.092
293.068
293.026
292.955
292.849
292.702
292.514
292.297
292.064
291.837
291.631
291.457
291.319
291.218
291.148
291.107
291.087
291.083
291.091
291.108
291.131
291.157
291.187
291.219
291.254
291.29
291.329
291.369
291.411
291.454
291.496
291.536
291.573
291.606
291.632
291.651
291.663
291.669
291.671
291.674
291.684
291.703
291.732
291.769
291.814
291.867
291.923
291.981
292.04
292.098
292.153
292.205
292.253
292.297
292.337
292.372
292.403
292.43
292.454
292.474
292.49
292.503
292.514
292.523
292.533
292.542
292.552
292.562
292.573
292.586
292.599
292.614
292.631
292.649
292.668
292.689
292.711
292.732
292.753
292.772
292.791
292.809
292.827
292.844
292.859
292.874
292.888
292.903
292.917
292.932
292.948
292.965
292.983
293
293.011
293.001
292.941
292.809
292.592
292.258
291.766
291.062
290.1
288.879
301.049
295.486
293.798
293.312
293.172
293.132
293.12
293.117
293.116
293.115
293.115
293.115
293.115
293.115
293.115
293.115
293.115
293.115
293.115
293.115
293.115
293.115
293.115
293.115
293.115
293.115
293.115
293.115
293.115
293.115
293.115
293.115
293.115
293.115
293.115
293.115
293.115
293.115
293.115
293.115
293.115
293.115
293.115
293.115
293.115
293.115
293.115
293.115
293.115
293.115
293.115
293.115
293.115
293.115
293.115
293.115
293.115
293.115
293.115
293.115
293.115
293.115
293.115
293.115
293.115
293.115
293.115
293.115
293.115
293.115
293.115
293.115
293.115
293.115
293.115
293.115
293.115
293.115
293.115
293.115
293.115
293.115
293.115
293.115
293.115
293.115
293.115
293.115
293.115
293.115
293.115
293.115
293.115
293.114
293.112
293.108
293.099
293.081
293.048
292.994
292.909
292.786
292.625
292.429
292.213
291.993
291.784
291.599
291.445
291.325
291.235
291.175
291.14
291.124
291.123
291.135
291.154
291.18
291.21
291.243
291.277
291.315
291.352
291.391
291.429
291.467
291.503
291.535
291.563
291.585
291.599
291.607
291.61
291.609
291.608
291.612
291.627
291.652
291.689
291.736
291.793
291.856
291.922
291.991
292.06
292.126
292.189
292.247
292.301
292.351
292.396
292.436
292.471
292.503
292.531
292.557
292.579
292.598
292.616
292.631
292.644
292.657
292.669
292.68
292.693
292.706
292.72
292.735
292.751
292.767
292.784
292.8
292.816
292.832
292.847
292.863
292.877
292.891
292.905
292.918
292.93
292.942
292.953
292.965
292.976
292.987
292.999
293.011
293.023
293.034
293.038
293.026
292.981
292.872
292.674
292.358
291.872
291.155
290.156
288.887
301.167
295.565
293.833
293.325
293.177
293.133
293.121
293.117
293.116
293.115
293.115
293.115
293.115
293.115
293.115
293.115
293.115
293.115
293.115
293.115
293.115
293.115
293.115
293.115
293.115
293.115
293.115
293.115
293.115
293.115
293.115
293.115
293.115
293.115
293.115
293.115
293.115
293.115
293.115
293.115
293.115
293.115
293.115
293.115
293.115
293.115
293.115
293.115
293.115
293.115
293.115
293.115
293.115
293.115
293.115
293.115
293.115
293.115
293.115
293.115
293.115
293.115
293.115
293.115
293.115
293.115
293.115
293.115
293.115
293.115
293.115
293.115
293.115
293.115
293.115
293.115
293.115
293.115
293.115
293.115
293.115
293.115
293.115
293.115
293.115
293.115
293.115
293.115
293.115
293.115
293.115
293.115
293.115
293.114
293.113
293.11
293.104
293.092
293.068
293.028
292.963
292.866
292.732
292.565
292.371
292.165
291.96
291.768
291.6
291.46
291.35
291.268
291.211
291.177
291.161
291.161
291.172
291.192
291.218
291.248
291.282
291.317
291.352
291.388
291.423
291.456
291.486
291.512
291.532
291.545
291.553
291.555
291.553
291.55
291.551
291.561
291.583
291.618
291.665
291.724
291.792
291.866
291.943
292.021
292.097
292.17
292.239
292.302
292.361
292.413
292.461
292.504
292.542
292.576
292.606
292.633
292.657
292.68
292.699
292.717
292.733
292.749
292.764
292.778
292.791
292.804
292.817
292.83
292.844
292.857
292.87
292.883
292.896
292.908
292.92
292.932
292.944
292.955
292.966
292.976
292.985
292.995
293.003
293.012
293.02
293.029
293.037
293.045
293.052
293.057
293.055
293.038
292.995
292.904
292.729
292.431
291.953
291.23
290.202
288.894
301.276
295.641
293.866
293.338
293.181
293.135
293.121
293.117
293.116
293.115
293.115
293.115
293.115
293.115
293.115
293.115
293.115
293.115
293.115
293.115
293.115
293.115
293.115
293.115
293.115
293.115
293.115
293.115
293.115
293.115
293.115
293.115
293.115
293.115
293.115
293.115
293.115
293.115
293.115
293.115
293.115
293.115
293.115
293.115
293.115
293.115
293.115
293.115
293.115
293.115
293.115
293.115
293.115
293.115
293.115
293.115
293.115
293.115
293.115
293.115
293.115
293.115
293.115
293.115
293.115
293.115
293.115
293.115
293.115
293.115
293.115
293.115
293.115
293.115
293.115
293.115
293.115
293.115
293.115
293.115
293.115
293.115
293.115
293.115
293.115
293.115
293.115
293.115
293.115
293.115
293.115
293.115
293.115
293.114
293.114
293.112
293.108
293.1
293.084
293.056
293.008
292.935
292.831
292.694
292.528
292.343
292.149
291.959
291.784
291.629
291.498
291.393
291.313
291.256
291.219
291.2
291.196
291.204
291.221
291.245
291.273
291.303
291.335
291.367
291.398
291.426
291.451
291.472
291.487
291.496
291.5
291.5
291.499
291.498
291.506
291.525
291.558
291.605
291.665
291.736
291.815
291.9
291.986
292.07
292.152
292.23
292.302
292.368
292.428
292.483
292.531
292.574
292.613
292.648
292.678
292.705
292.73
292.752
292.772
292.79
292.808
292.822
292.837
292.851
292.864
292.877
292.889
292.901
292.912
292.923
292.934
292.945
292.955
292.965
292.975
292.985
292.994
293.002
293.011
293.018
293.026
293.033
293.04
293.046
293.052
293.058
293.064
293.069
293.072
293.072
293.066
293.045
293.001
292.918
292.76
292.477
292.01
291.287
290.245
288.899
301.377
295.713
293.898
293.351
293.186
293.137
293.122
293.117
293.116
293.115
293.115
293.115
293.115
293.115
293.115
293.115
293.115
293.115
293.115
293.115
293.115
293.115
293.115
293.115
293.115
293.115
293.115
293.115
293.115
293.115
293.115
293.115
293.115
293.115
293.115
293.115
293.115
293.115
293.115
293.115
293.115
293.115
293.115
293.115
293.115
293.115
293.115
293.115
293.115
293.115
293.115
293.115
293.115
293.115
293.115
293.115
293.115
293.115
293.115
293.115
293.115
293.115
293.115
293.115
293.115
293.115
293.115
293.115
293.115
293.115
293.115
293.115
293.115
293.115
293.115
293.115
293.115
293.115
293.115
293.115
293.115
293.115
293.115
293.115
293.115
293.115
293.115
293.115
293.115
293.115
293.115
293.115
293.115
293.115
293.114
293.113
293.111
293.105
293.096
293.077
293.044
292.992
292.914
292.808
292.673
292.515
292.341
292.161
291.988
291.826
291.681
291.557
291.454
291.373
291.312
291.27
291.245
291.234
291.236
291.247
291.264
291.287
291.312
291.338
291.362
291.386
291.407
291.424
291.435
291.443
291.447
291.449
291.451
291.459
291.479
291.511
291.558
291.62
291.694
291.777
291.867
291.959
292.051
292.14
292.225
292.304
292.377
292.443
292.503
292.556
292.604
292.646
292.683
292.717
292.747
292.773
292.796
292.818
292.836
292.854
292.87
292.884
292.898
292.911
292.923
292.934
292.945
292.955
292.965
292.974
292.983
292.992
293
293.008
293.016
293.023
293.03
293.037
293.043
293.049
293.055
293.06
293.065
293.07
293.074
293.078
293.082
293.084
293.085
293.082
293.073
293.05
293.005
292.923
292.775
292.504
292.048
291.33
290.282
288.904
301.471
295.782
293.929
293.364
293.191
293.138
293.122
293.117
293.116
293.116
293.115
293.115
293.115
293.115
293.115
293.115
293.115
293.115
293.115
293.115
293.115
293.115
293.115
293.115
293.115
293.115
293.115
293.115
293.115
293.115
293.115
293.115
293.115
293.115
293.115
293.115
293.115
293.115
293.115
293.115
293.115
293.115
293.115
293.115
293.115
293.115
293.115
293.115
293.115
293.115
293.115
293.115
293.115
293.115
293.115
293.115
293.115
293.115
293.115
293.115
293.115
293.115
293.115
293.115
293.115
293.115
293.115
293.115
293.115
293.115
293.115
293.115
293.115
293.115
293.115
293.115
293.115
293.115
293.115
293.115
293.115
293.115
293.115
293.115
293.115
293.115
293.115
293.115
293.115
293.115
293.115
293.115
293.115
293.115
293.115
293.114
293.113
293.109
293.103
293.092
293.071
293.035
292.98
292.903
292.799
292.671
292.523
292.363
292.2
292.04
291.89
291.754
291.635
291.534
291.451
291.385
291.336
291.302
291.283
291.274
291.276
291.285
291.298
291.315
291.333
291.351
291.366
291.38
291.391
291.399
291.405
291.412
291.424
291.446
291.481
291.53
291.594
291.671
291.757
291.85
291.947
292.044
292.138
292.228
292.312
292.39
292.46
292.524
292.581
292.631
292.676
292.716
292.751
292.782
292.809
292.835
292.856
292.876
292.893
292.909
292.923
292.936
292.948
292.959
292.97
292.98
292.989
292.997
293.005
293.013
293.02
293.027
293.034
293.04
293.046
293.052
293.057
293.062
293.067
293.071
293.075
293.079
293.083
293.086
293.089
293.092
293.094
293.095
293.094
293.089
293.077
293.053
293.008
292.926
292.783
292.527
292.082
291.366
290.304
288.908
301.546
295.845
293.961
293.376
293.196
293.14
293.123
293.118
293.116
293.116
293.115
293.115
293.115
293.115
293.115
293.115
293.115
293.115
293.115
293.115
293.115
293.115
293.115
293.115
293.115
293.115
293.115
293.115
293.115
293.115
293.115
293.115
293.115
293.115
293.115
293.115
293.115
293.115
293.115
293.115
293.115
293.115
293.115
293.115
293.115
293.115
293.115
293.115
293.115
293.115
293.115
293.115
293.115
293.115
293.115
293.115
293.115
293.115
293.115
293.115
293.115
293.115
293.115
293.115
293.115
293.115
293.115
293.115
293.115
293.115
293.115
293.115
293.115
293.115
293.115
293.115
293.115
293.115
293.115
293.115
293.115
293.115
293.115
293.115
293.115
293.115
293.115
293.115
293.115
293.115
293.115
293.115
293.115
293.115
293.115
293.114
293.114
293.111
293.109
293.102
293.089
293.066
293.03
292.976
292.901
292.803
292.685
292.551
292.406
292.259
292.113
291.976
291.849
291.735
291.635
291.549
291.479
291.423
291.381
291.351
291.333
291.324
291.322
291.326
291.333
291.342
291.353
291.363
291.373
291.383
291.394
291.411
291.437
291.476
291.529
291.595
291.673
291.761
291.856
291.956
292.054
292.151
292.244
292.331
292.411
292.484
292.549
292.608
292.66
292.706
292.747
292.783
292.815
292.842
292.868
292.889
292.909
292.926
292.941
292.955
292.967
292.979
292.989
292.999
293.007
293.016
293.022
293.029
293.036
293.042
293.048
293.053
293.059
293.063
293.068
293.072
293.076
293.08
293.083
293.086
293.089
293.092
293.094
293.097
293.099
293.1
293.101
293.101
293.099
293.093
293.081
293.056
293.011
292.93
292.789
292.542
292.109
291.394
290.318
288.912
301.629
295.912
293.992
293.389
293.201
293.142
293.124
293.118
293.116
293.116
293.115
293.115
293.115
293.115
293.115
293.115
293.115
293.115
293.115
293.115
293.115
293.115
293.115
293.115
293.115
293.115
293.115
293.115
293.115
293.115
293.115
293.115
293.115
293.115
293.115
293.115
293.115
293.115
293.115
293.115
293.115
293.115
293.115
293.115
293.115
293.115
293.115
293.115
293.115
293.115
293.115
293.115
293.115
293.115
293.115
293.115
293.115
293.115
293.115
293.115
293.115
293.115
293.115
293.115
293.115
293.115
293.115
293.115
293.115
293.115
293.115
293.115
293.115
293.115
293.115
293.115
293.115
293.115
293.115
293.115
293.115
293.115
293.115
293.115
293.115
293.115
293.115
293.115
293.115
293.115
293.115
293.115
293.115
293.115