/*--------------------------------*- C++ -*----------------------------------*\
  =========                 |
  \\      /  F ield         | OpenFOAM: The Open Source CFD Toolbox
   \\    /   O peration     | Website:  https://openfoam.org
    \\  /    A nd           | Version:  12
     \\/     M anipulation  |
\*---------------------------------------------------------------------------*/
FoamFile
{
    format      ascii;
    class       volVectorField;
    location    "10.02";
    object      U;
}
// * * * * * * * * * * * * * * * * * * * * * * * * * * * * * * * * * * * * * //

dimensions      [0 1 -1 0 0 0 0];

internalField   nonuniform List<vector> 
40000
(
(-0.0119146 0.00835432 0)
(-0.0169926 -0.000223714 0)
(-0.0148388 -0.00176531 0)
(-0.0117078 -0.00152584 0)
(-0.00908036 -0.00103933 0)
(-0.00721392 -0.000662573 0)
(-0.00592723 -0.000417391 0)
(-0.00503042 -0.000265417 0)
(-0.00439001 -0.000172113 0)
(-0.00392127 -0.000114012 0)
(-0.00357029 -7.71123e-05 0)
(-0.00330217 -5.30181e-05 0)
(-0.00309394 -3.6816e-05 0)
(-0.0029301 -2.55996e-05 0)
(-0.00279997 -1.76029e-05 0)
(-0.002696 -1.17424e-05 0)
(-0.00261273 -7.34496e-06 0)
(-0.00254615 -3.9764e-06 0)
(-0.00249322 -1.34161e-06 0)
(-0.00245163 7.67179e-07 0)
(-0.0024196 2.48228e-06 0)
(-0.00239571 3.86781e-06 0)
(-0.00237883 4.95473e-06 0)
(-0.00236808 5.73722e-06 0)
(-0.00236304 6.15924e-06 0)
(-0.0023632 6.68324e-06 0)
(-0.00236764 7.32745e-06 0)
(-0.00237576 8.70425e-06 0)
(-0.00238758 9.80335e-06 0)
(-0.00240298 1.05833e-05 0)
(-0.00242148 1.12144e-05 0)
(-0.00244275 1.17755e-05 0)
(-0.0024666 1.23037e-05 0)
(-0.00249289 1.28214e-05 0)
(-0.00252155 1.33384e-05 0)
(-0.00255247 1.38614e-05 0)
(-0.00258564 1.43916e-05 0)
(-0.002621 1.49306e-05 0)
(-0.00265855 1.54884e-05 0)
(-0.00269826 1.60661e-05 0)
(-0.00274016 1.66625e-05 0)
(-0.00278429 1.72743e-05 0)
(-0.00283064 1.7906e-05 0)
(-0.00287927 1.85724e-05 0)
(-0.00293021 1.92654e-05 0)
(-0.00298355 1.99829e-05 0)
(-0.00303935 2.07343e-05 0)
(-0.00309766 2.15284e-05 0)
(-0.00315861 2.23622e-05 0)
(-0.00322228 2.32359e-05 0)
(-0.00328878 2.41549e-05 0)
(-0.00335821 2.51145e-05 0)
(-0.00343074 2.6134e-05 0)
(-0.0035065 2.72072e-05 0)
(-0.00358562 2.83321e-05 0)
(-0.00366829 2.95159e-05 0)
(-0.00375468 3.07703e-05 0)
(-0.00384497 3.20961e-05 0)
(-0.00393941 3.35011e-05 0)
(-0.00403819 3.49834e-05 0)
(-0.00414156 3.65493e-05 0)
(-0.00424979 3.82079e-05 0)
(-0.00436315 3.99749e-05 0)
(-0.00448196 4.18468e-05 0)
(-0.00460655 4.38385e-05 0)
(-0.00473729 4.5952e-05 0)
(-0.00487456 4.82048e-05 0)
(-0.00501877 5.06017e-05 0)
(-0.00517039 5.31615e-05 0)
(-0.00532992 5.58883e-05 0)
(-0.00549787 5.87992e-05 0)
(-0.00567484 6.1902e-05 0)
(-0.00586145 6.5214e-05 0)
(-0.00605836 6.87572e-05 0)
(-0.00626632 7.25466e-05 0)
(-0.00648613 7.65972e-05 0)
(-0.00671864 8.09348e-05 0)
(-0.0069648 8.55814e-05 0)
(-0.00722566 9.05613e-05 0)
(-0.00750231 9.58936e-05 0)
(-0.00779596 0.000101607 0)
(-0.00810792 0.000107731 0)
(-0.00843964 0.000114291 0)
(-0.00879269 0.000121312 0)
(-0.00916878 0.000128838 0)
(-0.0095698 0.000136898 0)
(-0.00999785 0.000145561 0)
(-0.0104552 0.000154828 0)
(-0.0109445 0.000164808 0)
(-0.0114688 0.000175488 0)
(-0.0120313 0.000186992 0)
(-0.0126358 0.000199354 0)
(-0.0132868 0.000212627 0)
(-0.0139896 0.000226854 0)
(-0.01475 0.000241942 0)
(-0.0155752 0.000257783 0)
(-0.016473 0.000273952 0)
(-0.0174515 0.000289779 0)
(-0.0185179 0.000304437 0)
(-0.0196759 0.000316714 0)
(-0.0209217 0.000325698 0)
(-0.0222371 0.000329956 0)
(-0.0235849 0.000327792 0)
(-0.0249046 0.000315536 0)
(-0.0261148 0.000289112 0)
(-0.0271252 0.000244357 0)
(-0.0278526 0.000180682 0)
(-0.0282306 0.000101818 0)
(-0.0282182 2.77264e-05 0)
(-0.0278428 -3.8738e-05 0)
(-0.0270728 -0.000121473 0)
(-0.0259314 -0.0002208 0)
(-0.0244662 -0.000325784 0)
(-0.0227461 -0.000422852 0)
(-0.0208546 -0.000500116 0)
(-0.0188811 -0.000548654 0)
(-0.0169148 -0.000563236 0)
(-0.0150403 -0.000541625 0)
(-0.013336 -0.000484125 0)
(-0.0118706 -0.000392951 0)
(-0.0107 -0.000272407 0)
(-0.00986345 -0.000129442 0)
(-0.00937519 2.80573e-05 0)
(-0.00922596 0.000181725 0)
(-0.00945549 0.000304661 0)
(-0.0100556 0.000382466 0)
(-0.0109515 0.000407126 0)
(-0.0120381 0.000375644 0)
(-0.0132103 0.000288397 0)
(-0.0143911 0.000157119 0)
(-0.0155447 9.86806e-06 0)
(-0.0166784 -0.000115976 0)
(-0.0178357 -0.00018541 0)
(-0.019074 -0.00017834 0)
(-0.020439 -9.70845e-05 0)
(-0.0219448 3.55023e-05 0)
(-0.0235663 0.000186418 0)
(-0.0252467 0.000324425 0)
(-0.0269138 0.000428396 0)
(-0.028497 0.000490308 0)
(-0.0299404 0.000512186 0)
(-0.0312074 0.000502414 0)
(-0.032281 0.000470483 0)
(-0.0331598 0.000425299 0)
(-0.0338553 0.00037385 0)
(-0.0343888 0.000321341 0)
(-0.0347874 0.000271615 0)
(-0.0350826 0.000228272 0)
(-0.0353089 0.000194606 0)
(-0.0355005 0.000173824 0)
(-0.0356911 0.000166374 0)
(-0.0359157 0.000170556 0)
(-0.0362108 0.000186768 0)
(-0.0366115 0.000216229 0)
(-0.0371508 0.000260552 0)
(-0.0378592 0.000320699 0)
(-0.0387641 0.000397147 0)
(-0.0398898 0.000490153 0)
(-0.0412576 0.000599615 0)
(-0.0428847 0.000724941 0)
(-0.0447841 0.00086498 0)
(-0.0469638 0.00101758 0)
(-0.0494269 0.0011807 0)
(-0.0521718 0.00135142 0)
(-0.0551924 0.00152658 0)
(-0.0584782 0.001703 0)
(-0.0620152 0.00187765 0)
(-0.0657857 0.00204769 0)
(-0.0697691 0.00221072 0)
(-0.0739428 0.00236474 0)
(-0.0782833 0.00250849 0)
(-0.0827658 0.0026412 0)
(-0.0873648 0.00276214 0)
(-0.092055 0.002871 0)
(-0.096811 0.00296806 0)
(-0.101608 0.003053 0)
(-0.106419 0.00312566 0)
(-0.111218 0.00318521 0)
(-0.115976 0.00323009 0)
(-0.120659 0.00325781 0)
(-0.125226 0.00326391 0)
(-0.129626 0.00324204 0)
(-0.133792 0.00318368 0)
(-0.137641 0.0030754 0)
(-0.141068 0.00289668 0)
(-0.143931 0.00262085 0)
(-0.146015 0.00222671 0)
(-0.147096 0.00166126 0)
(-0.147053 0.00084034 0)
(-0.145173 -2.86455e-05 0)
(-0.139233 -0.000962361 0)
(-0.137073 -0.00333918 0)
(-0.123859 -0.000286332 0)
(-0.107361 -0.00355859 0)
(-0.0900529 -0.00853595 0)
(-0.0647231 -0.013937 0)
(-0.0376359 -0.0173821 0)
(-0.0109262 -0.0163087 0)
(0.013594 -0.00237193 0)
(0.0108696 0.00646959 0)
(-0.00999464 0.0213571 0)
(-0.0160103 0.00237077 0)
(-0.0170347 -0.00361148 0)
(-0.0159299 -0.00403621 0)
(-0.0142881 -0.0032411 0)
(-0.0127399 -0.00239439 0)
(-0.0114459 -0.00173906 0)
(-0.0103992 -0.00127173 0)
(-0.00955802 -0.000945033 0)
(-0.00887972 -0.000714592 0)
(-0.00832959 -0.00054955 0)
(-0.00788044 -0.000428899 0)
(-0.00751146 -0.000338797 0)
(-0.00720674 -0.00027009 0)
(-0.00695407 -0.000216653 0)
(-0.00674405 -0.000174316 0)
(-0.00656933 -0.000140234 0)
(-0.00642414 -0.000112361 0)
(-0.00630396 -8.92592e-05 0)
(-0.00620512 -6.9825e-05 0)
(-0.00612465 -5.33218e-05 0)
(-0.0060602 -3.91425e-05 0)
(-0.00600983 -2.68903e-05 0)
(-0.00597199 -1.61817e-05 0)
(-0.00594515 -6.79878e-06 0)
(-0.00592813 1.83279e-06 0)
(-0.00591928 9.85768e-06 0)
(-0.0059183 1.71462e-05 0)
(-0.00592608 2.44537e-05 0)
(-0.00594136 3.06992e-05 0)
(-0.00596306 3.62482e-05 0)
(-0.00599068 4.135e-05 0)
(-0.00602385 4.61451e-05 0)
(-0.00606226 5.07186e-05 0)
(-0.00610566 5.51022e-05 0)
(-0.00615389 5.93737e-05 0)
(-0.00620678 6.35201e-05 0)
(-0.0062642 6.76299e-05 0)
(-0.00632606 7.16892e-05 0)
(-0.00639232 7.57502e-05 0)
(-0.00646296 7.98092e-05 0)
(-0.00653795 8.38862e-05 0)
(-0.00661732 8.80323e-05 0)
(-0.00670109 9.22424e-05 0)
(-0.00678935 9.65419e-05 0)
(-0.00688215 0.000100931 0)
(-0.00697956 0.000105467 0)
(-0.00708172 0.000110134 0)
(-0.00718875 0.00011497 0)
(-0.0073008 0.00011996 0)
(-0.00741805 0.000125164 0)
(-0.00754065 0.000130579 0)
(-0.00766882 0.000136223 0)
(-0.00780282 0.000142125 0)
(-0.00794286 0.000148306 0)
(-0.00808921 0.000154775 0)
(-0.00824218 0.000161582 0)
(-0.00840211 0.00016874 0)
(-0.00856932 0.000176282 0)
(-0.00874419 0.000184224 0)
(-0.00892713 0.000192611 0)
(-0.00911861 0.000201481 0)
(-0.00931909 0.000210865 0)
(-0.00952913 0.000220827 0)
(-0.00974925 0.000231396 0)
(-0.00998007 0.000242608 0)
(-0.0102223 0.000254555 0)
(-0.0104767 0.000267267 0)
(-0.0107439 0.000280806 0)
(-0.0110249 0.00029526 0)
(-0.0113207 0.000310703 0)
(-0.0116321 0.000327187 0)
(-0.0119603 0.000344822 0)
(-0.0123066 0.000363722 0)
(-0.0126723 0.00038398 0)
(-0.0130586 0.000405712 0)
(-0.0134675 0.000429068 0)
(-0.0139004 0.000454192 0)
(-0.0143593 0.000481234 0)
(-0.0148462 0.000510367 0)
(-0.0153638 0.000541794 0)
(-0.0159142 0.000575717 0)
(-0.0165005 0.000612401 0)
(-0.0171257 0.000652077 0)
(-0.0177935 0.000695113 0)
(-0.0185078 0.0007418 0)
(-0.0192731 0.000792633 0)
(-0.0200946 0.000848062 0)
(-0.020978 0.000908736 0)
(-0.0219304 0.00097533 0)
(-0.0229597 0.00104877 0)
(-0.0240758 0.0011302 0)
(-0.0252906 0.00122107 0)
(-0.0266188 0.00132313 0)
(-0.028079 0.00143857 0)
(-0.0296946 0.00156994 0)
(-0.031493 0.00171913 0)
(-0.0335038 0.00188693 0)
(-0.0357526 0.00207032 0)
(-0.0382489 0.00225828 0)
(-0.0409699 0.00242885 0)
(-0.0438449 0.00254629 0)
(-0.0467487 0.00256551 0)
(-0.0495114 0.00244212 0)
(-0.0519435 0.00214898 0)
(-0.0538695 0.00168654 0)
(-0.0551536 0.00108612 0)
(-0.0556968 0.00039258 0)
(-0.0554673 -0.000337285 0)
(-0.0544961 -0.00107093 0)
(-0.052874 -0.00177375 0)
(-0.0507469 -0.00239279 0)
(-0.0482777 -0.00288472 0)
(-0.045619 -0.00322644 0)
(-0.0429023 -0.00341259 0)
(-0.0402369 -0.00344791 0)
(-0.0377135 -0.00334212 0)
(-0.0354098 -0.00310692 0)
(-0.033393 -0.00275618 0)
(-0.0317221 -0.00230979 0)
(-0.0304473 -0.00179959 0)
(-0.0296094 -0.00125819 0)
(-0.0292556 -0.000691888 0)
(-0.029511 -7.55409e-05 0)
(-0.0305171 0.00058366 0)
(-0.0322029 0.00121062 0)
(-0.0345309 0.00174169 0)
(-0.0374349 0.00214017 0)
(-0.0408341 0.00240359 0)
(-0.0446353 0.00256828 0)
(-0.0487446 0.00269427 0)
(-0.0530633 0.0028351 0)
(-0.057483 0.00301264 0)
(-0.0618906 0.00321074 0)
(-0.0661819 0.00338678 0)
(-0.0702734 0.00349452 0)
(-0.0741069 0.00350224 0)
(-0.0776444 0.00339869 0)
(-0.0808616 0.00319203 0)
(-0.083743 0.00290319 0)
(-0.0862809 0.00255936 0)
(-0.0884769 0.00218872 0)
(-0.0903429 0.00181585 0)
(-0.091901 0.00146166 0)
(-0.0931828 0.00114242 0)
(-0.0942275 0.000869843 0)
(-0.0950794 0.00065201 0)
(-0.0957862 0.000494263 0)
(-0.0963965 0.000399767 0)
(-0.0969592 0.00037008 0)
(-0.0975218 0.000404373 0)
(-0.0981281 0.000499071 0)
(-0.0988177 0.000649874 0)
(-0.0996256 0.000851987 0)
(-0.100582 0.0011018 0)
(-0.101715 0.0013945 0)
(-0.103043 0.00172447 0)
(-0.104585 0.00208522 0)
(-0.10635 0.00246931 0)
(-0.108342 0.00286931 0)
(-0.11056 0.00327764 0)
(-0.112999 0.0036864 0)
(-0.115649 0.0040888 0)
(-0.118494 0.00447776 0)
(-0.121517 0.00484652 0)
(-0.124695 0.00518925 0)
(-0.128002 0.00550092 0)
(-0.131413 0.00577803 0)
(-0.1349 0.00601772 0)
(-0.138433 0.00621778 0)
(-0.141982 0.00637714 0)
(-0.14552 0.00649556 0)
(-0.149018 0.00657289 0)
(-0.152449 0.00660939 0)
(-0.155785 0.00660531 0)
(-0.158999 0.00655955 0)
(-0.162063 0.00647037 0)
(-0.164949 0.00633473 0)
(-0.167625 0.00614755 0)
(-0.170053 0.0059007 0)
(-0.17219 0.00558273 0)
(-0.173984 0.00517862 0)
(-0.175376 0.00466755 0)
(-0.176295 0.00401751 0)
(-0.176649 0.00317896 0)
(-0.176284 0.00208674 0)
(-0.174972 0.000660957 0)
(-0.172554 -0.00120899 0)
(-0.168748 -0.00349393 0)
(-0.163041 -0.00610672 0)
(-0.154656 -0.00933112 0)
(-0.144601 -0.0153464 0)
(-0.132876 -0.0170784 0)
(-0.1173 -0.0270563 0)
(-0.0979559 -0.0336785 0)
(-0.0755687 -0.0399678 0)
(-0.0510473 -0.0427463 0)
(-0.0268864 -0.0377473 0)
(-0.00429628 -0.0173404 0)
(0.00963555 0.0136994 0)
(-0.00788776 0.0330508 0)
(-0.0133547 0.00782893 0)
(-0.015885 -0.00267809 0)
(-0.0161133 -0.00472717 0)
(-0.0154797 -0.00434305 0)
(-0.014598 -0.0035042 0)
(-0.0137183 -0.00273796 0)
(-0.0129194 -0.00213544 0)
(-0.0122195 -0.00168028 0)
(-0.011616 -0.00133664 0)
(-0.0110995 -0.00107513 0)
(-0.0106586 -0.000873401 0)
(-0.0102828 -0.000715504 0)
(-0.00996257 -0.000590071 0)
(-0.00968956 -0.000489008 0)
(-0.0094571 -0.00040647 0)
(-0.00925942 -0.00033821 0)
(-0.00909177 -0.000281096 0)
(-0.00895022 -0.000232765 0)
(-0.00883149 -0.00019144 0)
(-0.00873282 -0.000155719 0)
(-0.00865193 -0.000124562 0)
(-0.00858687 -9.70723e-05 0)
(-0.008536 -7.25333e-05 0)
(-0.00849794 -5.02104e-05 0)
(-0.00847154 -2.96965e-05 0)
(-0.00845584 -1.04883e-05 0)
(-0.00844863 5.86989e-06 0)
(-0.00845026 2.00741e-05 0)
(-0.00846165 3.30452e-05 0)
(-0.00848056 4.52279e-05 0)
(-0.00850657 5.67408e-05 0)
(-0.00853937 6.7677e-05 0)
(-0.0085787 7.81208e-05 0)
(-0.00862425 8.81451e-05 0)
(-0.00867582 9.78344e-05 0)
(-0.00873323 0.000107277 0)
(-0.00879629 0.000116534 0)
(-0.00886491 0.00012566 0)
(-0.008939 0.000134705 0)
(-0.00901855 0.000143724 0)
(-0.00910349 0.000152779 0)
(-0.00919384 0.000161894 0)
(-0.00928964 0.000171107 0)
(-0.00939095 0.000180484 0)
(-0.00949782 0.000190031 0)
(-0.00961036 0.000199831 0)
(-0.00972867 0.000209863 0)
(-0.00985295 0.000220203 0)
(-0.00998333 0.000230896 0)
(-0.01012 0.000241949 0)
(-0.0102631 0.000253447 0)
(-0.010413 0.000265397 0)
(-0.0105699 0.000277855 0)
(-0.010734 0.000290893 0)
(-0.0109057 0.00030453 0)
(-0.0110854 0.000318822 0)
(-0.0112733 0.000333834 0)
(-0.01147 0.000349627 0)
(-0.0116759 0.000366287 0)
(-0.0118914 0.000383832 0)
(-0.0121172 0.000402387 0)
(-0.0123536 0.00042201 0)
(-0.0126014 0.000442809 0)
(-0.0128613 0.000464895 0)
(-0.013134 0.000488327 0)
(-0.0134203 0.000513251 0)
(-0.013721 0.000539817 0)
(-0.0140372 0.000568122 0)
(-0.0143697 0.000598322 0)
(-0.01472 0.000630623 0)
(-0.0150889 0.000665176 0)
(-0.0154781 0.00070218 0)
(-0.0158889 0.000741883 0)
(-0.016323 0.000784528 0)
(-0.0167821 0.000830341 0)
(-0.0172683 0.000879695 0)
(-0.0177836 0.000932895 0)
(-0.0183307 0.000990366 0)
(-0.018912 0.00105245 0)
(-0.0195304 0.00111966 0)
(-0.0201896 0.0011926 0)
(-0.020893 0.0012718 0)
(-0.0216448 0.00135801 0)
(-0.02245 0.00145205 0)
(-0.0233138 0.00155489 0)
(-0.0242425 0.00166768 0)
(-0.0252434 0.00179192 0)
(-0.0263248 0.00192934 0)
(-0.0274972 0.00208221 0)
(-0.0287727 0.00225342 0)
(-0.0301668 0.00244682 0)
(-0.0316988 0.00266759 0)
(-0.0333935 0.00292235 0)
(-0.0352819 0.00321932 0)
(-0.0374014 0.00356697 0)
(-0.039793 0.00397075 0)
(-0.0424921 0.00442675 0)
(-0.0455135 0.00491218 0)
(-0.0488298 0.00537585 0)
(-0.0523536 0.0057369 0)
(-0.0559304 0.00589429 0)
(-0.0593537 0.00575215 0)
(-0.0623966 0.00524765 0)
(-0.0648506 0.00437318 0)
(-0.0665601 0.00317927 0)
(-0.067442 0.00176167 0)
(-0.0674731 0.000212135 0)
(-0.0667136 -0.00136134 0)
(-0.06528 -0.00281284 0)
(-0.0633956 -0.00402738 0)
(-0.0612581 -0.00495089 0)
(-0.0590274 -0.00557309 0)
(-0.056824 -0.0059106 0)
(-0.0547372 -0.0059922 0)
(-0.0528372 -0.00584734 0)
(-0.0511841 -0.00550172 0)
(-0.0498367 -0.00497839 0)
(-0.0488585 -0.00429985 0)
(-0.0483241 -0.00348416 0)
(-0.0483164 -0.00252227 0)
(-0.0489423 -0.00136644 0)
(-0.0504847 1.43265e-05 0)
(-0.0529487 0.00153441 0)
(-0.0559638 0.00302097 0)
(-0.0594729 0.0043594 0)
(-0.0634174 0.00549246 0)
(-0.0677521 0.00639944 0)
(-0.0724205 0.00708696 0)
(-0.077342 0.00757765 0)
(-0.0824127 0.0078997 0)
(-0.0875143 0.00807915 0)
(-0.0925277 0.00813471 0)
(-0.0973459 0.00807767 0)
(-0.101882 0.00791123 0)
(-0.106071 0.00763448 0)
(-0.109872 0.0072468 0)
(-0.113265 0.00675274 0)
(-0.116244 0.00616658 0)
(-0.118818 0.00551125 0)
(-0.121005 0.00481624 0)
(-0.122831 0.00411336 0)
(-0.124328 0.00343299 0)
(-0.125534 0.00280236 0)
(-0.126493 0.00224435 0)
(-0.127248 0.00177572 0)
(-0.127849 0.00140741 0)
(-0.128339 0.00114484 0)
(-0.128764 0.000988604 0)
(-0.129163 0.000936456 0)
(-0.129572 0.000984774 0)
(-0.130025 0.00112899 0)
(-0.130551 0.00136304 0)
(-0.131171 0.00167871 0)
(-0.131907 0.00206691 0)
(-0.132773 0.00251715 0)
(-0.13378 0.0030184 0)
(-0.134933 0.00355961 0)
(-0.136235 0.00412918 0)
(-0.137682 0.00471498 0)
(-0.139267 0.0053043 0)
(-0.140977 0.00588484 0)
(-0.142797 0.00644544 0)
(-0.144711 0.00697588 0)
(-0.146697 0.00746664 0)
(-0.148733 0.00790987 0)
(-0.150797 0.0082987 0)
(-0.152864 0.00862817 0)
(-0.154913 0.00889481 0)
(-0.156918 0.00909664 0)
(-0.158857 0.00923275 0)
(-0.160711 0.00930275 0)
(-0.16246 0.00930728 0)
(-0.164086 0.00924766 0)
(-0.165574 0.00912407 0)
(-0.166909 0.00893565 0)
(-0.168077 0.0086798 0)
(-0.169063 0.00835177 0)
(-0.169854 0.00794299 0)
(-0.17043 0.00744065 0)
(-0.170772 0.00682768 0)
(-0.170854 0.00608129 0)
(-0.17065 0.0051692 0)
(-0.170132 0.00404207 0)
(-0.169245 0.00261876 0)
(-0.167893 0.000772555 0)
(-0.166003 -0.00161939 0)
(-0.163585 -0.00466575 0)
(-0.160246 -0.0084654 0)
(-0.155652 -0.0132067 0)
(-0.149722 -0.0191553 0)
(-0.14239 -0.0269715 0)
(-0.131224 -0.0355284 0)
(-0.116809 -0.0444392 0)
(-0.100614 -0.0537953 0)
(-0.0815831 -0.0619113 0)
(-0.060441 -0.0660115 0)
(-0.0383257 -0.060573 0)
(-0.0176125 -0.0368149 0)
(0.00638386 0.013858 0)
(-0.00640381 0.0424177 0)
(-0.0115126 0.0129102 0)
(-0.0144868 -0.00102888 0)
(-0.0153761 -0.00462894 0)
(-0.0153536 -0.00481297 0)
(-0.0149659 -0.00414706 0)
(-0.0144598 -0.00340029 0)
(-0.0139361 -0.0027582 0)
(-0.0134361 -0.00224283 0)
(-0.0129771 -0.00183459 0)
(-0.0125647 -0.00151099 0)
(-0.0121985 -0.00125242 0)
(-0.0118762 -0.00104375 0)
(-0.0115937 -0.00087352 0)
(-0.0113475 -0.000733158 0)
(-0.0111333 -0.000616194 0)
(-0.0109481 -0.000517707 0)
(-0.0107884 -0.000434015 0)
(-0.0106516 -0.000362187 0)
(-0.0105353 -0.000300032 0)
(-0.0104374 -0.00024576 0)
(-0.0103561 -0.000197966 0)
(-0.0102898 -0.000155518 0)
(-0.0102369 -0.000117456 0)
(-0.0101965 -8.29393e-05 0)
(-0.0101674 -5.12553e-05 0)
(-0.0101497 -2.16593e-05 0)
(-0.0101426 6.11145e-06 0)
(-0.0101438 2.80975e-05 0)
(-0.0101524 4.87607e-05 0)
(-0.0101687 6.85402e-05 0)
(-0.0101924 8.73833e-05 0)
(-0.0102233 0.000105358 0)
(-0.010261 0.000122521 0)
(-0.0103054 0.000139053 0)
(-0.0103562 0.000154998 0)
(-0.0104133 0.000170566 0)
(-0.0104765 0.000185797 0)
(-0.0105457 0.000200811 0)
(-0.0106208 0.000215675 0)
(-0.0107019 0.000230484 0)
(-0.0107888 0.000245337 0)
(-0.0108816 0.00026025 0)
(-0.0109804 0.000275316 0)
(-0.0110851 0.000290593 0)
(-0.0111958 0.000306161 0)
(-0.0113127 0.000322054 0)
(-0.0114359 0.000338355 0)
(-0.0115656 0.000355083 0)
(-0.0117019 0.000372385 0)
(-0.011845 0.000390264 0)
(-0.0119952 0.000408802 0)
(-0.0121527 0.000428067 0)
(-0.0123177 0.000448123 0)
(-0.0124906 0.000469059 0)
(-0.0126717 0.000490958 0)
(-0.0128615 0.000513889 0)
(-0.0130601 0.000537972 0)
(-0.0132682 0.000563252 0)
(-0.0134864 0.000589915 0)
(-0.0137149 0.000618003 0)
(-0.0139543 0.00064766 0)
(-0.0142054 0.00067905 0)
(-0.0144689 0.000712272 0)
(-0.0147454 0.000747514 0)
(-0.0150356 0.000784962 0)
(-0.0153407 0.000824767 0)
(-0.0156614 0.000867152 0)
(-0.0159988 0.00091237 0)
(-0.016354 0.00096065 0)
(-0.0167283 0.00101229 0)
(-0.0171231 0.00106754 0)
(-0.0175397 0.00112675 0)
(-0.01798 0.00119035 0)
(-0.0184457 0.00125871 0)
(-0.0189387 0.0013323 0)
(-0.0194613 0.00141162 0)
(-0.0200159 0.00149727 0)
(-0.0206054 0.00158992 0)
(-0.0212326 0.00169031 0)
(-0.021901 0.00179924 0)
(-0.0226144 0.00191771 0)
(-0.0233773 0.00204681 0)
(-0.0241943 0.00218788 0)
(-0.0250714 0.00234241 0)
(-0.0260148 0.00251229 0)
(-0.0270322 0.00269971 0)
(-0.0281323 0.00290749 0)
(-0.0293258 0.00313914 0)
(-0.0306255 0.00339928 0)
(-0.0320474 0.003694 0)
(-0.0336113 0.00403148 0)
(-0.0353426 0.00442228 0)
(-0.0372729 0.00488008 0)
(-0.0394413 0.00541972 0)
(-0.0418906 0.00605284 0)
(-0.0446611 0.00677964 0)
(-0.047776 0.00757397 0)
(-0.0512211 0.00836993 0)
(-0.0549237 0.00905431 0)
(-0.0587435 0.00947925 0)
(-0.0624806 0.00949107 0)
(-0.0659033 0.00897324 0)
(-0.068789 0.00788079 0)
(-0.0709633 0.00625851 0)
(-0.0723317 0.00423325 0)
(-0.0728944 0.00198552 0)
(-0.0727355 -0.000331432 0)
(-0.0720102 -0.00252137 0)
(-0.0709213 -0.00437021 0)
(-0.0696705 -0.00578273 0)
(-0.068402 -0.0067497 0)
(-0.0672178 -0.00730563 0)
(-0.0661903 -0.0074997 0)
(-0.0653768 -0.00737866 0)
(-0.0648302 -0.00697693 0)
(-0.0646092 -0.00631512 0)
(-0.0647842 -0.00540056 0)
(-0.0654359 -0.00422072 0)
(-0.0666478 -0.00273961 0)
(-0.0685189 -0.000945166 0)
(-0.0712123 0.00109968 0)
(-0.0742737 0.00317642 0)
(-0.0775196 0.00512279 0)
(-0.081061 0.00691232 0)
(-0.0849008 0.00852981 0)
(-0.0890127 0.00993035 0)
(-0.0933494 0.011073 0)
(-0.0978453 0.0119361 0)
(-0.10242 0.01252 0)
(-0.106981 0.0128403 0)
(-0.111428 0.0129197 0)
(-0.115665 0.0127819 0)
(-0.119605 0.0124483 0)
(-0.123179 0.0119376 0)
(-0.126341 0.0112681 0)
(-0.129064 0.0104596 0)
(-0.131346 0.00953678 0)
(-0.133203 0.00853055 0)
(-0.134667 0.00747744 0)
(-0.135779 0.00641715 0)
(-0.136591 0.00538895 0)
(-0.137153 0.00442807 0)
(-0.137519 0.00356469 0)
(-0.13774 0.00282294 0)
(-0.137865 0.00221881 0)
(-0.137938 0.00176018 0)
(-0.137994 0.00144806 0)
(-0.138065 0.00127842 0)
(-0.138174 0.00124444 0)
(-0.138338 0.00133758 0)
(-0.13857 0.00154801 0)
(-0.138879 0.00186559 0)
(-0.139272 0.00227871 0)
(-0.139753 0.00277423 0)
(-0.140322 0.00333757 0)
(-0.140978 0.0039536 0)
(-0.141715 0.00460679 0)
(-0.142527 0.00528186 0)
(-0.143405 0.00596347 0)
(-0.144337 0.00663614 0)
(-0.14531 0.00728533 0)
(-0.146308 0.00789735 0)
(-0.147316 0.00845999 0)
(-0.148316 0.00896284 0)
(-0.149292 0.00939733 0)
(-0.150228 0.00975649 0)
(-0.151108 0.0100356 0)
(-0.151916 0.0102321 0)
(-0.152641 0.0103457 0)
(-0.15327 0.0103771 0)
(-0.153796 0.0103285 0)
(-0.154211 0.0102024 0)
(-0.154511 0.0100021 0)
(-0.154693 0.0097298 0)
(-0.154756 0.0093865 0)
(-0.154701 0.00897071 0)
(-0.154528 0.00847778 0)
(-0.154239 0.0078986 0)
(-0.153835 0.00722051 0)
(-0.153312 0.00642569 0)
(-0.152667 0.00548976 0)
(-0.151899 0.00437677 0)
(-0.151003 0.00302655 0)
(-0.149944 0.00132566 0)
(-0.148678 -0.000837148 0)
(-0.147361 -0.00355277 0)
(-0.145758 -0.00696168 0)
(-0.143643 -0.0113071 0)
(-0.140624 -0.0168908 0)
(-0.136463 -0.0240922 0)
(-0.131049 -0.0328118 0)
(-0.123586 -0.0427695 0)
(-0.113521 -0.0553656 0)
(-0.100744 -0.0685018 0)
(-0.0849985 -0.0803764 0)
(-0.0665699 -0.0872284 0)
(-0.0459742 -0.0827956 0)
(-0.0249834 -0.0565189 0)
(-0.00225074 0.00550593 0)
(-0.00535889 0.0503905 0)
(-0.0101923 0.0177875 0)
(-0.0132216 0.00110985 0)
(-0.0144628 -0.00403367 0)
(-0.0147826 -0.00483907 0)
(-0.0147153 -0.00442358 0)
(-0.0144787 -0.00377079 0)
(-0.0141741 -0.00315284 0)
(-0.0138494 -0.00262861 0)
(-0.0135286 -0.00219611 0)
(-0.0132247 -0.00184156 0)
(-0.0129438 -0.00155004 0)
(-0.0126884 -0.00130882 0)
(-0.0124587 -0.00110771 0)
(-0.0122537 -0.000938681 0)
(-0.0120724 -0.000795445 0)
(-0.0119128 -0.000673079 0)
(-0.0117735 -0.000567669 0)
(-0.0116528 -0.000476193 0)
(-0.0115491 -0.000396168 0)
(-0.0114611 -0.000325711 0)
(-0.0113875 -0.000263185 0)
(-0.0113272 -0.000207336 0)
(-0.0112789 -0.000157076 0)
(-0.0112419 -0.000111571 0)
(-0.0112151 -7.00339e-05 0)
(-0.0111983 -3.17357e-05 0)
(-0.0111937 4.48668e-06 0)
(-0.0111975 3.63108e-05 0)
(-0.011206 6.55303e-05 0)
(-0.011222 9.32525e-05 0)
(-0.0112452 0.000119613 0)
(-0.0112755 0.000144719 0)
(-0.0113125 0.000168771 0)
(-0.0113562 0.000191916 0)
(-0.0114062 0.000214353 0)
(-0.0114624 0.000236215 0)
(-0.0115248 0.000257648 0)
(-0.0115934 0.000278784 0)
(-0.011668 0.000299719 0)
(-0.0117486 0.000320588 0)
(-0.0118352 0.000341473 0)
(-0.0119279 0.000362455 0)
(-0.0120267 0.000383657 0)
(-0.0121317 0.000405105 0)
(-0.0122429 0.000426981 0)
(-0.0123605 0.000449284 0)
(-0.0124846 0.000472134 0)
(-0.0126154 0.000495634 0)
(-0.0127529 0.000519832 0)
(-0.0128976 0.000544863 0)
(-0.0130496 0.000570792 0)
(-0.0132091 0.000597716 0)
(-0.0133766 0.000625749 0)
(-0.0135521 0.000654977 0)
(-0.0137363 0.000685529 0)
(-0.0139292 0.000717503 0)
(-0.0141316 0.000751079 0)
(-0.0143436 0.000786333 0)
(-0.014566 0.000823446 0)
(-0.0147993 0.000862591 0)
(-0.0150439 0.000903888 0)
(-0.0153006 0.000947575 0)
(-0.0155702 0.000993857 0)
(-0.0158532 0.00104292 0)
(-0.0161506 0.00109505 0)
(-0.0164633 0.00115051 0)
(-0.0167922 0.00120956 0)
(-0.0171385 0.00127254 0)
(-0.0175033 0.00133981 0)
(-0.0178881 0.00141181 0)
(-0.0182941 0.00148892 0)
(-0.0187228 0.00157159 0)
(-0.0191763 0.00166039 0)
(-0.0196563 0.00175595 0)
(-0.0201648 0.00185897 0)
(-0.0207043 0.00197012 0)
(-0.0212773 0.00209033 0)
(-0.0218868 0.00222048 0)
(-0.022536 0.0023618 0)
(-0.0232287 0.00251545 0)
(-0.023969 0.00268293 0)
(-0.0247614 0.00286594 0)
(-0.0256114 0.00306649 0)
(-0.0265252 0.00328696 0)
(-0.0275099 0.00353025 0)
(-0.0285739 0.00379992 0)
(-0.029727 0.00410042 0)
(-0.0309812 0.00443747 0)
(-0.0323509 0.00481861 0)
(-0.033854 0.00525384 0)
(-0.0355129 0.00575643 0)
(-0.0373554 0.00634309 0)
(-0.0394155 0.0070342 0)
(-0.0417326 0.00784889 0)
(-0.044347 0.00879674 0)
(-0.0472903 0.00986319 0)
(-0.0505699 0.0109886 0)
(-0.0541498 0.0120549 0)
(-0.0579358 0.0128855 0)
(-0.0617719 0.0132742 0)
(-0.0654564 0.0130327 0)
(-0.0687742 0.0120454 0)
(-0.0715376 0.0103077 0)
(-0.073624 0.007937 0)
(-0.075002 0.00515317 0)
(-0.0757379 0.00223142 0)
(-0.0759836 -0.000608238 0)
(-0.0759209 -0.00311074 0)
(-0.0757348 -0.00508504 0)
(-0.0755601 -0.00648352 0)
(-0.0754887 -0.00734085 0)
(-0.075584 -0.00772019 0)
(-0.0758946 -0.00768446 0)
(-0.0764656 -0.00728096 0)
(-0.0773441 -0.00653624 0)
(-0.0785808 -0.0054597 0)
(-0.0802186 -0.00404451 0)
(-0.0822822 -0.00228721 0)
(-0.0847934 -0.00022585 0)
(-0.0876776 0.00200822 0)
(-0.0905465 0.00422947 0)
(-0.0935421 0.00641216 0)
(-0.0967374 0.00855141 0)
(-0.100119 0.0105835 0)
(-0.103648 0.0124215 0)
(-0.107278 0.0139905 0)
(-0.110954 0.0152371 0)
(-0.114613 0.0161307 0)
(-0.118187 0.0166635 0)
(-0.121598 0.0168456 0)
(-0.12477 0.0167002 0)
(-0.127628 0.0162585 0)
(-0.130112 0.0155556 0)
(-0.132176 0.0146292 0)
(-0.133796 0.0135186 0)
(-0.134968 0.012266 0)
(-0.135714 0.0109166 0)
(-0.136073 0.00951853 0)
(-0.136099 0.00812177 0)
(-0.135859 0.00677602 0)
(-0.135426 0.00552602 0)
(-0.134869 0.00440502 0)
(-0.134253 0.00343813 0)
(-0.133635 0.00264321 0)
(-0.133065 0.00202801 0)
(-0.132578 0.00159113 0)
(-0.132199 0.00132529 0)
(-0.131937 0.00121916 0)
(-0.131795 0.00126005 0)
(-0.131765 0.00143391 0)
(-0.131838 0.00172638 0)
(-0.132001 0.00212381 0)
(-0.132244 0.00261255 0)
(-0.132552 0.00317804 0)
(-0.132913 0.00380469 0)
(-0.133315 0.00447622 0)
(-0.133743 0.00517591 0)
(-0.134185 0.00588642 0)
(-0.134627 0.00659123 0)
(-0.135055 0.00727383 0)
(-0.135456 0.00791925 0)
(-0.135816 0.00851347 0)
(-0.136124 0.00904412 0)
(-0.136367 0.00950127 0)
(-0.136535 0.00987698 0)
(-0.136618 0.0101655 0)
(-0.13661 0.0103637 0)
(-0.136504 0.0104706 0)
(-0.136297 0.0104876 0)
(-0.135987 0.010418 0)
(-0.135576 0.0102658 0)
(-0.135065 0.0100361 0)
(-0.134461 0.00973373 0)
(-0.13377 0.00936277 0)
(-0.133002 0.0089255 0)
(-0.132166 0.00842113 0)
(-0.131275 0.00784508 0)
(-0.13034 0.00718858 0)
(-0.129373 0.00643863 0)
(-0.128385 0.0055777 0)
(-0.127391 0.00458195 0)
(-0.126409 0.003415 0)
(-0.125446 0.00200769 0)
(-0.124501 0.000235905 0)
(-0.12364 -0.00199312 0)
(-0.122896 -0.00484231 0)
(-0.122109 -0.00855878 0)
(-0.121192 -0.0133589 0)
(-0.120026 -0.0195504 0)
(-0.118238 -0.0276963 0)
(-0.115436 -0.0379796 0)
(-0.11115 -0.0503537 0)
(-0.104864 -0.0648756 0)
(-0.0960352 -0.0806247 0)
(-0.0839706 -0.0955668 0)
(-0.0685323 -0.105671 0)
(-0.0497176 -0.103922 0)
(-0.02864 -0.0783563 0)
(-0.00844852 -0.0136819 0)
(-0.00457785 0.057312 0)
(-0.00921447 0.022368 0)
(-0.0122213 0.00325619 0)
(-0.0135705 -0.00318575 0)
(-0.014091 -0.00460207 0)
(-0.0142225 -0.00446091 0)
(-0.0141666 -0.00393352 0)
(-0.0140204 -0.00337158 0)
(-0.0138305 -0.00286801 0)
(-0.0136224 -0.00243697 0)
(-0.0134116 -0.00207312 0)
(-0.013207 -0.00176641 0)
(-0.013014 -0.00150706 0)
(-0.0128354 -0.00128664 0)
(-0.0126724 -0.00109823 0)
(-0.0125255 -0.000936185 0)
(-0.0123942 -0.000795892 0)
(-0.0122782 -0.000673646 0)
(-0.0121767 -0.000566417 0)
(-0.0120888 -0.000471786 0)
(-0.0120139 -0.000387723 0)
(-0.0119512 -0.000312622 0)
(-0.0118997 -0.000245105 0)
(-0.0118588 -0.000184122 0)
(-0.0118278 -0.000128791 0)
(-0.011806 -7.838e-05 0)
(-0.0117932 -3.22132e-05 0)
(-0.0117914 1.03632e-05 0)
(-0.0117979 5.1754e-05 0)
(-0.0118089 8.9628e-05 0)
(-0.0118266 0.00012516 0)
(-0.011851 0.000158808 0)
(-0.0118822 0.000190816 0)
(-0.0119199 0.000221544 0)
(-0.0119638 0.000251178 0)
(-0.012014 0.00027998 0)
(-0.0120702 0.000308083 0)
(-0.0121324 0.000335704 0)
(-0.0122007 0.00036297 0)
(-0.012275 0.000390021 0)
(-0.0123552 0.000416979 0)
(-0.0124415 0.000443979 0)
(-0.0125337 0.000471123 0)
(-0.0126321 0.000498554 0)
(-0.0127366 0.000526358 0)
(-0.0128475 0.000554644 0)
(-0.0129647 0.00058355 0)
(-0.0130885 0.000613116 0)
(-0.0132191 0.000643544 0)
(-0.0133565 0.000674863 0)
(-0.0135012 0.000707224 0)
(-0.0136532 0.000740743 0)
(-0.0138128 0.000775552 0)
(-0.0139804 0.000811785 0)
(-0.0141563 0.000849557 0)
(-0.0143408 0.000889033 0)
(-0.0145343 0.000930352 0)
(-0.0147373 0.000973676 0)
(-0.0149502 0.00101922 0)
(-0.0151735 0.0010671 0)
(-0.0154079 0.00111763 0)
(-0.0156537 0.00117098 0)
(-0.0159118 0.00122735 0)
(-0.0161829 0.00128709 0)
(-0.0164677 0.00135045 0)
(-0.016767 0.00141771 0)
(-0.0170819 0.00148931 0)
(-0.0174133 0.00156558 0)
(-0.0177622 0.00164691 0)
(-0.01813 0.00173379 0)
(-0.0185179 0.00182678 0)
(-0.0189274 0.00192643 0)
(-0.0193601 0.00203338 0)
(-0.0198177 0.00214827 0)
(-0.0203022 0.00227201 0)
(-0.0208158 0.00240543 0)
(-0.0213609 0.0025496 0)
(-0.0219401 0.00270564 0)
(-0.0225564 0.00287482 0)
(-0.0232132 0.00305862 0)
(-0.0239142 0.00325885 0)
(-0.0246637 0.00347748 0)
(-0.0254665 0.00371679 0)
(-0.0263282 0.0039796 0)
(-0.0272551 0.00426921 0)
(-0.0282547 0.0045897 0)
(-0.0293355 0.004946 0)
(-0.0305079 0.0053444 0)
(-0.0317838 0.00579298 0)
(-0.0331783 0.00630238 0)
(-0.0347093 0.00688651 0)
(-0.0363988 0.0075635 0)
(-0.0382737 0.00835561 0)
(-0.0403657 0.00928814 0)
(-0.0427093 0.0103817 0)
(-0.0453378 0.0116401 0)
(-0.0482738 0.0130299 0)
(-0.0515163 0.0144573 0)
(-0.0550255 0.0157545 0)
(-0.0587123 0.0166907 0)
(-0.0624382 0.0170139 0)
(-0.0660303 0.0165143 0)
(-0.0693112 0.0150898 0)
(-0.0721368 0.0127862 0)
(-0.0744293 0.00979833 0)
(-0.0761942 0.00643603 0)
(-0.0775155 0.00305288 0)
(-0.0785436 -7.4906e-05 0)
(-0.0794161 -0.00269761 0)
(-0.0802669 -0.00466601 0)
(-0.0811763 -0.00596375 0)
(-0.0822106 -0.00665747 0)
(-0.0834158 -0.00682683 0)
(-0.0848271 -0.00654083 0)
(-0.086474 -0.00584888 0)