/*--------------------------------*- C++ -*----------------------------------*\
  =========                 |
  \\      /  F ield         | OpenFOAM: The Open Source CFD Toolbox
   \\    /   O peration     | Website:  https://openfoam.org
    \\  /    A nd           | Version:  12
     \\/     M anipulation  |
\*---------------------------------------------------------------------------*/
FoamFile
{
    format      ascii;
    class       volScalarField;
    location    "10";
    object      p;
}
// * * * * * * * * * * * * * * * * * * * * * * * * * * * * * * * * * * * * * //

dimensions      [1 -1 -2 0 0 0 0];

internalField   nonuniform List<scalar> 
40000
(
100143.50057342846
100143.50081460533
100143.50100167503
100143.50111301722
100143.50117458029
100143.50121166607
100143.50123642573
100143.50125438879
100143.50126823202
100143.50127940916
100143.50128877487
100143.50129686507
100143.50130403452
100143.50131052778
100143.50131652011
100143.50132214001
100143.50132748479
100143.50133263059
100143.50133763754
100143.50134255517
100143.50134742404
100143.50135227777
100143.50135714575
100143.50136205285
100143.50136702106
100143.5013720717
100143.50137722479
100143.5013824903
100143.50138788771
100143.50139342775
100143.50139912205
100143.50140498449
100143.50141102889
100143.50141726772
100143.50142371267
100143.50143037575
100143.50143726908
100143.50144440452
100143.50145179407
100143.50145945048
100143.50146738715
100143.50147561768
100143.5014841559
100143.50149301617
100143.50150221361
100143.50151176384
100143.50152168275
100143.50153198662
100143.50154269252
100143.50155381848
100143.50156538349
100143.50157740738
100143.50158991101
100143.50160291667
100143.50161644843
100143.50163053178
100143.50164519342
100143.50166046142
100143.50167636614
100143.50169294007
100143.50171021692
100143.50172823177
100143.50174702256
100143.50176663075
100143.5017871001
100143.50180847553
100143.50183080454
100143.50185413973
100143.50187853871
100143.50190406112
100143.50193076709
100143.50195872034
100143.50198799314
100143.50201866718
100143.50205082956
100143.50208456918
100143.50211997825
100143.50215715742
100143.50219621828
100143.50223728099
100143.50228047157
100143.50232592398
100143.50237378622
100143.5024242225
100143.50247740811
100143.502533523
100143.50259275407
100143.50265530746
100143.50272142033
100143.50279136142
100143.50286542143
100143.5029439068
100143.50302714766
100143.50311551496
100143.50320943115
100143.5033093638
100143.50341580347
100143.50352922456
100143.50365002094
100143.50377840456
100143.50391426221
100143.50405697395
100143.50420521897
100143.50435682619
100143.50450873026
100143.50465709979
100143.50479773934
100143.50492682094
100143.50504103942
100143.50513123987
100143.50519036477
100143.50521684959
100143.50521015185
100143.50517155741
100143.50510417981
100143.50501267271
100143.50490296664
100143.50478204804
100143.50465770563
100143.50453816279
100143.50443153727
100143.50434512759
100143.50428473001
100143.50425360244
100143.50424658248
100143.50426769194
100143.50431170697
100143.50437218139
100143.50444095985
100143.50451116284
100143.50457775097
100143.50463794534
100143.5046915079
100143.50474014861
100143.50478635909
100143.50483224222
100143.50487875426
100143.50492558935
100143.5049715749
100143.50501522962
100143.50505518929
100143.50509039777
100143.50512011262
100143.50514382582
100143.50516117811
100143.50517190655
100143.50517583288
100143.50517287322
100143.50516304599
100143.50514645576
100143.50512327411
100143.50509381951
100143.50505866874
100143.50501832381
100143.50497340949
100143.50492462037
100143.50487266302
100143.50481821419
100143.50476187533
100143.50470413404
100143.50464534383
100143.50458572773
100143.50452539482
100143.50446435482
100143.50440254113
100143.50433985915
100143.50427625226
100143.50421176995
100143.5041466237
100143.50408123127
100143.50401625752
100143.50395265657
100143.50389171476
100143.50383509934
100143.50378491616
100143.50374379911
100143.50371504047
100143.50370277239
100143.5037122169
100143.50375003176
100143.5038247757
100143.50394751839
100143.50413266323
100143.50439913459
100143.50477211036
100143.50528544678
100143.50598424453
100143.50692154189
100143.50813334521
100143.50966925066
100143.51157229353
100143.51385240303
100143.51645723387
100143.51922943682
100143.52185677981
100143.52386828986
100143.5248010676
100143.52458310142
100143.52375978741
100143.52344881193
100143.44272459658
100143.44268956754
100143.44272889895
100143.44277994774
100143.44281962357
100143.4428481439
100143.44286924653
100143.44288552662
100143.44289858403
100143.44290940506
100143.44291862586
100143.44292667396
100143.44293385046
100143.44294037178
100143.44294640042
100143.44295205886
100143.44295744049
100143.44296262146
100143.44296766045
100143.44297260638
100143.44297750112
100143.44298237738
100143.44298726469
100143.44299218935
100143.4429971724
100143.44300223349
100143.44300739196
100143.4430126744
100143.44301808588
100143.44302363483
100143.44302933748
100143.44303520775
100143.44304125871
100143.44304750326
100143.44305395382
100143.44306062219
100143.44306751988
100143.44307465885
100143.44308205166
100143.44308971117
100143.44309765045
100143.44310588294
100143.44311442281
100143.44312328489
100143.44313248403
100143.44314203538
100143.44315195461
100143.44316225829
100143.44317296376
100143.44318408897
100143.44319565271
100143.44320767485
100143.44322017644
100143.44323317977
100143.44324670885
100143.44326078944
100143.4432754485
100143.44329071358
100143.44330661398
100143.44332318235
100143.44334045397
100143.4433584646
100143.44337725063
100143.44339685189
100143.44341731313
100143.44343868145
100143.44346100376
100143.44348432896
100143.44350871297
100143.44353421965
100143.44356091545
100143.44358886479
100143.4436181331
100143.44364879461
100143.44368093609
100143.44371465243
100143.44375004077
100143.44378720126
100143.44382624341
100143.44386728927
100143.44391046901
100143.44395591484
100143.44400376415
100143.44405417133
100143.44410731582
100143.44416339567
100143.44422261363
100143.44428517304
100143.44435129089
100143.44442121784
100143.44449524746
100143.44457370926
100143.44465695783
100143.44474537429
100143.44483938147
100143.44493945583
100143.44504611012
100143.4451598317
100143.44528096843
100143.44540955669
100143.44554510867
100143.44568642635
100143.44583153115
100143.44597770726
100143.44612156908
100143.44625913104
100143.44638610879
100143.44649836197
100143.44658977026
100143.44665438058
100143.44668835684
100143.4466894678
100143.44665759538
100143.4465947135
100143.44650451123
100143.44639203358
100143.44626341123
100143.44612566114
100143.4459864729
100143.4458538677
100143.44573570939
100143.44563901983
100143.44556925861
100143.44553013332
100143.44552540329
100143.4455474222
100143.44559360135
100143.44565612091
100143.44572642619
100143.44579594243
100143.4458578612
100143.4459084806
100143.44594766636
100143.44597835485
100143.44600499331
100143.44603165262
100143.44606058869
100143.4460919242
100143.4461243289
100143.44615599621
100143.44618534046
100143.44621125843
100143.44623307166
100143.44625034431
100143.44626272075
100143.44626983578
100143.44627129994
100143.44626674145
100143.44625587361
100143.44623857804
100143.44621500067
100143.44618546916
100143.44615019455
100143.44610964973
100143.44606445804
100143.44601529076
100143.44596280731
100143.44590763072
100143.44585032157
100143.44579134643
100143.44573104502
100143.44566962178
100143.44560716789
100143.44554369294
100143.44547915395
100143.44541348715
100143.44534666074
100143.44527874609
100143.44520998426
100143.44514083241
100143.44507199325
100143.44500444386
100143.44493947575
100143.44487873185
100143.44482425714
100143.44477857502
100143.44474479742
100143.44472677961
100143.4447293408
100143.44475857707
100143.44482227214
100143.44493038068
100143.44509562284
100143.44533452234
100143.44566945918
100143.44613087225
100143.44675521814
100143.44758299799
100143.4486821232
100143.45009784932
100143.45186407729
100143.4539897811
100143.4564287587
100143.45903917187
100143.46154247598
100143.46352517373
100143.46457409297
100143.46459754855
100143.46410156238
100143.46373376934
100143.38453152287
100143.3844302628
100143.38442366694
100143.38444452302
100143.38446837223
100143.38448886882
100143.38450573439
100143.38451966777
100143.38453135552
100143.38454133875
100143.38455002761
100143.38455772691
100143.38456466893
100143.38457102852
100143.38457694165
100143.38458251643
100143.3845878361
100143.38459296976
100143.38459797298
100143.38460289103
100143.38460776274
100143.38461262114
100143.38461749388
100143.38462240424
100143.3846273747
100143.3846324256
100143.38463757267
100143.38464283427
100143.38464823081
100143.38465377258
100143.38465946644
100143.38466532738
100143.38467137054
100143.38467760793
100143.38468404995
100143.38469070876
100143.38469759755
100143.38470472831
100143.38471211219
100143.38471976147
100143.3847276898
100143.38473591123
100143.38474443951
100143.3847532887
100143.38476247356
100143.38477200951
100143.38478191239
100143.38479219862
100143.38480288527
100143.38481399017
100143.38482553209
100143.38483753108
100143.38485000853
100143.38486298676
100143.38487648901
100143.3848905405
100143.38490516861
100143.3849204018
100143.38493626872
100143.38495279998
100143.3849700303
100143.38498799717
100143.38500673806
100143.38502629081
100143.38504669779
100143.38506800729
100143.38509026989
100143.38511353471
100143.38513785167
100143.38516327835
100143.38518988257
100143.38521773701
100143.38524691308
100143.38527748191
100143.38530952201
100143.38534312363
100143.3853783855
100143.38541540947
100143.38545430127
100143.38549517767
100143.38553817119
100143.38558342431
100143.38563107999
100143.385681282
100143.38573418828
100143.38578998418
100143.38584888166
100143.38591110465
100143.3859768777
100143.38604643321
100143.38612003277
100143.3861979839
100143.38628063664
100143.38636836906
100143.3864615794
100143.38656067601
100143.38666603123
100143.38677787551
100143.38689614013
100143.38702027792
100143.38714912081
100143.3872808645
100143.38741317262
100143.38754328567
100143.38766804553
100143.38778382579
100143.38788658874
100143.3879716982
100143.3880328245
100143.38806600533
100143.38806930755
100143.38804107445
100143.38798221739
100143.38789547161
100143.38778485557
100143.38765535156
100143.38751275031
100143.38736357931
100143.38721508063
100143.38707536632
100143.38695380652
100143.3868595988
100143.3867943693
100143.38675344236
100143.38674170666
100143.38676095185
100143.38680460818
100143.38686352533
100143.38692770865
100143.38698832033
100143.38703943536
100143.38707874416
100143.38710715451
100143.38712771061
100143.38714434741
100143.38716060901
100143.38717877088
100143.38719962403
100143.38722281068
100143.38724736664
100143.38727216586
100143.38729617563
100143.38731850767
100143.38733833579
100143.3873548441
100143.38736722867
100143.38737473158
100143.38737668867
100143.38737258369
100143.38736210755
100143.38734519087
100143.38732195795
100143.38729261489
100143.38725750429
100143.38721709228
100143.38717191418
100143.3871225066
100143.38706937018
100143.38701295649
100143.38695365649
100143.38689177751
100143.38682752596
100143.38676102024
100143.3866923301
100143.38662152614
100143.38654871534
100143.38647407021
100143.38639786796
100143.38632053803
100143.38624270335
100143.3861652022
100143.38608909464
100143.38601567197
100143.38594648485
100143.38588338454
100143.38582857858
100143.38578471952
100143.38575503166
100143.38574350037
100143.38575515343
100143.38579641745
100143.38587543734
100143.38600236508
100143.38619028106
100143.38645815816
100143.38683515295
100143.3873577949
100143.38807180787
100143.38901857226
100143.39024983806
100143.39180879539
100143.39371556348
100143.39594135334
100143.39837279069
100143.4007780783
100143.40280976007
100143.40410185892
100143.40448838469
100143.40421713122
100143.40404088181
100143.32622694688
100143.32612446116
100143.32610085871
100143.32610625599
100143.32611938103
100143.32613305183
100143.32614556866
100143.32615667785
100143.32616648663
100143.32617518728
100143.32618297897
100143.32619003659
100143.32619650947
100143.32620252004
100143.32620816793
100143.3262135368
100143.32621869541
100143.32622369962
100143.32622859634
100143.32623342863
100143.32623822804
100143.32624302244
100143.32624784173
100143.32625270686
100143.32625763449
100143.32626264545
100143.32626775747
100143.32627298361
100143.32627834276
100143.32628385013
100143.32628951498
100143.32629534994
100143.32630136771
100143.3263075797
100143.32631399712
100143.32632063236
100143.32632749768
100143.32633460416
100143.32634196315
100143.32634958753
100143.32635749085
100143.32636568615
100143.32637418632
100143.32638300533
100143.32639215841
100143.32640166111
100143.3264115287
100143.32642177711
100143.32643242351
100143.32644348621
100143.32645498408
100143.32646693666
100143.326479365
100143.3264922916
100143.32650573965
100143.32651973338
100143.3265342994
100143.32654946671
100143.32656526491
100143.32658172357
100143.32659887477
100143.32661675532
100143.32663540461
100143.32665486108
100143.3266751637
100143.32669635699
100143.32671849283
100143.3267416258
100143.3267658081
100143.32679109136
100143.3268175344
100143.32684520716
100143.32687418623
100143.32690454832
100143.32693637024
100143.3269697357
100143.32700474015
100143.32704148728
100143.32708008235
100143.32712063266
100143.32716325726
100143.32720809471
100143.32725529793
100143.32730502097
100143.32735741447
100143.32741263784
100143.32747087626
100143.32753234441
100143.32759727245
100143.32766589143
100143.32773843642
100143.32781516171
100143.32789634688
100143.32798228237
100143.32807323532
100143.32816939095
100143.32827074903
100143.32837697002
100143.32848721059
100143.328600024
100143.32871344483
100143.32882529199
100143.32893350051
100143.32903622628
100143.32913155426
100143.32921695632
100143.32928893568
100143.32934282324
100143.3293733474
100143.32937737723
100143.3293534759
100143.32930131519
100143.32922252113
100143.32912001763
100143.32899760545
100143.328859809
100143.32871190862
100143.32856011213
100143.32841197676
100143.32827654826
100143.32816166904
100143.32806374242
100143.32798469931
100143.32793862536
100143.32792704002
100143.32794361861
100143.32798055955
100143.32802908368
100143.32808033006
100143.32812676518
100143.32816351391
100143.32818894993
100143.32820439158
100143.32821312327
100143.32821920142
100143.32822636879
100143.32823731867
100143.32825341909
100143.3282748683
100143.32830103853
100143.32833077064
100143.32836270744
100143.32839552415
100143.32842783282
100143.32845817301
100143.32848509902
100143.32850729713
100143.32852367232
100143.32853340905
100143.32853601773
100143.32853125222
100143.32851906084
100143.32849952714
100143.32847285582
100143.32843936236
100143.32839945285
100143.32835357547
100143.32830217405
100143.3282456701
100143.32818446199
100143.32811892833
100143.32804941949
100143.32797624811
100143.32789971275
100143.32782014301
100143.32773793985
100143.32765359548
100143.32756770281
100143.32748096988
100143.32739423755
100143.32730848882
100143.32722484293
100143.32714454734
100143.32706898409
100143.32699968989
100143.32693838998
100143.32688707174
100143.3268480947
100143.32682432204
100143.32681932917
100143.32683766565
100143.32688494788
100143.3269679123
100143.32709581446
100143.32728487899
100143.32756286612
100143.32796309619
100143.32851381156
100143.32926080305
100143.33025596864
100143.33155010278
100143.33317939275
100143.33514227968
100143.33736750184
100143.33968307401
100143.34181143806
100143.34342547084
100143.34428391074
100143.34443925417
100143.34448904563
100143.26788798171
100143.26779334442
100143.26776463492
100143.26776271765
100143.26776891711
100143.26777752
100143.26778640645
100143.26779490623
100143.26780282611
100143.26781014437
100143.26781691001
100143.26782319526
100143.26782907694
100143.26783462911
100143.26783991804
100143.26784499819
100143.26784992275
100143.26785473854
100143.26785947703
100143.26786417386
100143.26786886041
100143.26787355859
100143.26787829124
100143.2678830786
100143.26788793839
100143.26789288885
100143.26789794369
100143.26790311479
100143.26790842024
100143.26791387727
100143.26791949569
100143.26792528605
100143.26793126133
100143.2679374329
100143.26794381104
100143.26795040726
100143.26795723366
100143.26796430127
100143.26797162107
100143.26797920562
100143.26798706807
100143.26799522099
100143.26800367683
100143.26801244928
100143.26802155333
100143.26803100437
100143.26804081745
100143.26805100824
100143.26806159396
100143.26807259317
100143.26808402484
100143.26809590789
100143.26810826233
100143.26812111061
100143.26813447663
100143.26814838439
100143.26816285866
100143.26817792695
100143.26819361957
100143.26820996725
100143.26822700056
100143.26824475313
100143.26826326367
100143.26828257318
100143.268302721
100143.26832374679
100143.26834569646
100143.26836862443
100143.26839258883
100143.26841764539
100143.26844384878
100143.26847125991
100143.26849995028
100143.26852999809
100143.26856148217
100143.26859448201
100143.26862908503
100143.26866539125
100143.26870350914
100143.26874354694
100143.26878561189
100143.26882982168
100143.2688763148
100143.26892524626
100143.26897677404
100143.2690310514
100143.26908823386
100143.26914849356
100143.26921202328
100143.26927902606
100143.26934969962
100143.26942422388
100143.26950275172
100143.26958538564
100143.2696721164
100143.26976270984
100143.26985654997
100143.26995247039
100143.27004865064
100143.27014273772
100143.27023231264
100143.27031554485
100143.27039163803
100143.27046063899
100143.27052250507
100143.27057596501
100143.27061780465
100143.27064340573
100143.2706487127
100143.27063081041
100143.2705883102
100143.27052168373
100143.27043279217
100143.27032439887
100143.27019989645
100143.27006328294
100143.26991934585
100143.26977398605
100143.2696340954
100143.26950428651
100143.26938311929
100143.26927982207
100143.26920527883
100143.26915832677
100143.2691377782
100143.2691395791
100143.269157494
100143.26918416875
100143.26921243285
100143.26923653868
100143.26925309618
100143.26926142654
100143.26926326961
100143.26926199057
100143.26926157504
100143.26926570229
100143.26927708479
100143.26929714925
100143.26932610876
100143.2693632766
100143.26940715994
100143.26945572137
100143.26950696531
100143.26955884091
100143.2696091058
100143.26965555776
100143.26969631719
100143.26973004027
100143.26975583279
100143.26977318739
100143.26978178234
100143.26978149613
100143.26977231301
100143.26975432225
100143.26972771583
100143.26969279067
100143.26964992927
100143.26959956744
100143.26954216874
100143.26947821649
100143.26940822401
100143.26933274225
100143.26925235802
100143.26916769501
100143.2690794269
100143.26898829771
100143.26889513295
100143.26880083862
100143.26870639061
100143.26861282246
100143.26852121369
100143.26843267672
100143.26834834242
100143.26826935673
100143.26819688444
100143.26813211614
100143.26807632967
100143.2680310112
100143.26799793828
100143.26797927407
100143.26797771108
100143.26799641813
100143.26803912703
100143.26811288999
100143.26823347449
100143.26841954527
100143.26868852525
100143.26906882995
100143.26960320216
100143.27034319393
100143.27134566916
100143.27266281986
100143.27432290942
100143.2763020188
100143.27849322686
100143.28069017957
100143.28260968221
100143.28397213931
100143.28463414217
100143.2847397834
100143.20953539816
100143.20944999547
100143.20942096142
100143.20941406611
100143.20941587242
100143.20942094103
100143.2094270392
100143.20943336382
100143.20943959682
100143.20944560735
100143.20945135277
100143.20945683859
100143.2094620884
100143.20946713115
100143.20947200929
100143.20947675743
100143.20948140476
100143.20948598656
100143.20949053037
100143.20949506275
100143.20949960504
100143.20950417579
100143.20950879769
100143.20951348725
100143.20951825747
100143.20952312535
100143.20952810453
100143.20953320604
100143.20953844498
100143.20954383764
100143.20954939449
100143.20955512593
100143.2095610449
100143.20956716179
100143.20957348571
100143.20958002804
100143.20958680107
100143.20959381553
100143.20960108159
100143.20960861114
100143.20961641702
100143.20962451145
100143.20963290648
100143.20964161534
100143.20965065269
100143.20966003372
100143.20966977348
100143.20967988743
100143.20969039241
100143.20970130665
100143.20971264914
100143.2097244388
100143.2097366947
100143.20974943806
100143.2097626929
100143.20977648409
100143.20979083565
100143.20980577241
100143.20982132309
100143.20983751955
100143.20985439325
100143.20987197527
100143.20989030006
100143.20990940776
100143.20992934107
100143.20995014107
100143.20997184851
100143.20999450977
100143.21001818014
100143.21004291953
100143.21006878639
100143.21009583869
100143.21012413978
100143.21015376202
100143.21018478395
100143.21021728458
100143.21025134329
100143.210287047
100143.21032449587
100143.21036379984
100143.21040506856
100143.21044840828
100143.21049393062
100143.21054176302
100143.21059204926
100143.21064493831
100143.21070057126
100143.21075907843
100143.21082058748
100143.21088522718
100143.2109531106
100143.21102430062
100143.21109876991
100143.21117635061
100143.21125663843
100143.21133883405
100143.21142156339
100143.21150273999
100143.21157960899
100143.21164919443
100143.21170915946
100143.21175872626
100143.2117990574
100143.2118325293
100143.21186112448
100143.21188469543
100143.21190014081
100143.21190266272
100143.21188951741
100143.21185791348
100143.2118060128
100143.21173432644
100143.21164450959
100143.21153888559
100143.21142024767
100143.21129192748
100143.21115810651
100143.21102330205
100143.21089021796
100143.21076097336
100143.21064408679
100143.21054595678
100143.21046883176
100143.21041324352
100143.21037766909
100143.21035861946
100143.21035121208
100143.21035002418
100143.21035009903
100143.21034786008
100143.21034172171
100143.21033225663
100143.21032187411
100143.21031413887
100143.21031290709
100143.2103215239
100143.21034226399
100143.21037604078
100143.21042244187
100143.2104801627
100143.21054680356
100143.21061852155
100143.21069212125
100143.21076548229
100143.21083607584
100143.21090128209
100143.21095910958
100143.21100838763
100143.21104784028
100143.21107689549
100143.211095504
100143.21110379243
100143.21110178287
100143.21108954365
100143.21106722229
100143.21103506259
100143.21099341464
100143.21094273274
100143.21088355547
100143.21081649313
100143.2107422265
100143.21066151193
100143.21057519178
100143.21048419215
100143.21038951188
100143.21029220948
100143.21019339169
100143.2100942033
100143.20999580876
100143.20989936088
100143.20980596845
100143.20971667385
100143.20963243299
100143.20955411164
100143.20948250656
100143.20941831739
100143.20936215541
100143.2093147561
100143.20927706581
100143.20925013442
100143.20923505811
100143.20923308992
100143.20924600733
100143.20927926732
100143.20934452818
100143.20944796501
100143.20959903905
100143.20982476961
100143.21016170853
100143.21065770951
100143.21137178941
100143.21236827514
100143.21370197296
100143.21539381356
100143.21739995436
100143.21958422544
100143.22171036841
100143.22346592219
100143.22450911593
100143.22465461398
100143.15117498279
100143.15109852923
100143.15107018915
100143.15106084601
100143.15106007011
100143.15106278482
100143.15106684927
100143.15107146604
100143.15107628718
100143.15108114698
100143.15108595659
100143.15109067537
100143.15109530008
100143.15109983188
100143.15110428355
100143.15110867386
100143.15111302304
100143.15111735274
100143.15112167802
100143.15112602043
100143.15113039814
100143.15113482437
100143.1511393172
100143.15114388976
100143.15114855321
100143.15115332407
100143.1511582143
100143.15116323234
100143.15116839178
100143.15117370799
100143.15117919158
100143.15118485238
100143.15119070266
100143.15119675167
100143.15120300782
100143.15120948273
100143.15121618884
100143.15122313618
100143.15123033398
100143.15123779351
100143.15124552736
100143.15125354743
100143.15126186525
100143.15127049376
100143.15127944725
100143.15128874051
100143.15129838833
100143.15130840609
100143.15131881024
100143.15132961834
100143.15134084881
100143.15135252064
100143.1513646528
100143.15137726511
100143.15139037999
100143.15140402249
100143.15141821757
100143.15143298889
100143.15144836191
100143.15146436701
100143.15148103704
100143.15149840366
100143.15151649746
100143.15153535284
100143.15155501102
100143.15157551675
100143.15159691329
100143.15161924258
100143.15164255106
100143.15166689357
100143.15169232995
100143.1517189201
100143.15174672312
100143.15177580217
100143.15180622935
100143.15183808304
100143.15187144127
100143.15190638008
100143.15194298042
100143.15198133659
100143.15202155466
100143.15206374072
100143.15210799345
100143.15215440853
100143.15220308973
100143.15225415275
100143.15230771131
100143.15236385736
100143.15242265267
100143.1524841272
100143.15254826394
100143.15261495679
100143.15268394753
100143.15275474075
100143.1528264714
100143.15289772621
100143.15296636733
100143.15302945834
100143.15308351032
100143.15312525516
100143.15315283528
100143.15316690285
100143.1531707961
100143.15316927621
100143.15316626569
100143.15316278719
100143.1531561485
100143.15314130556
100143.15311509222
100143.15307634063
100143.15302242611
100143.15295275813
100143.15286849426
100143.1527712534
100143.15266305394
100143.15254638081
100143.15242442103
100143.1522993641
100143.15217453531
100143.15205534574
100143.15194542112
100143.15184818314
100143.15176544995
100143.15169757823
100143.15164342996
100143.15160052893
100143.15156560122
100143.1515353119
100143.15150702847
100143.15147944643
100143.1514529087
100143.15142936925
100143.15141199908
100143.15140454609
100143.15141058859
100143.15143285644
100143.15147275101
100143.15153004169
100143.15160260869
100143.15168700283
100143.15177955599
100143.15187456799
100143.15196929849
100143.15206379481
100143.15215397152
100143.15223559609
100143.15230643738
100143.1523645345
100143.15240862088
100143.15244139834
100143.15246378326
100143.15247544236
100143.15247603397
100143.15246557316
100143.15244419636
100143.15241215943
100143.15236982091
100143.1523176551
100143.15225626253
100143.15218636951
100143.15210881295
100143.15202453201
100143.15193457088
100143.15184007802
100143.15174228816
100143.15164248641
100143.15154197662
100143.15144205515
100143.15134398268
100143.15124894689
100143.15115802422
100143.15107215053
100143.15099208937
100143.1509184309
100143.15085168296
100143.15079223363
100143.15074016941
100143.15069568067
100143.15065930451
100143.15063136438
100143.15061134468
100143.1505991163
100143.15059608931
100143.15060671666
100143.15063260043
100143.15067148332
100143.1507329639
100143.15083741803
100143.15101298527
100143.15129990624
100143.15175394171
100143.15244504175
100143.15344712744
100143.15481833143
100143.15657109313
100143.15863642631
100143.16082834337
100143.16281637273
100143.16412344635
100143.16434799155
100143.09281015857
100143.09274173231
100143.0927144965
100143.09270401868
100143.09270178346
100143.09270297593
100143.09270559659
100143.09270891723
100143.09271260526
100143.09271648889
100143.09272047442
100143.09272450097
100143.09272853933
100143.09273257479
100143.09273660832
100143.09274064284
100143.09274468619
100143.09274875205
100143.09275284808
100143.0927569897
100143.09276118998
100143.09276545727
100143.09276980716
100143.09277425047
100143.09277879576
100143.09278345777
100143.09278824656
100143.09279316908
100143.09279823862
100143.09280346916
100143.09280886916
100143.09281444785
100143.09282021741
100143.09282618666
100143.09283236343
100143.09283875908
100143.0928453856
100143.09285225213
100143.09285936723
100143.09286674195
100143.09287438889
100143.09288231943
100143.09289054439
100143.09289907626
100143.09290792914
100143.09291711733
100143.09292665507
100143.09293655741
100143.09294684065
100143.09295752173
100143.0929686179
100143.09298014738
100143.09299212946
100143.09300458382
100143.09301753104
100143.09303099406
100143.09304499818
100143.09305956808
100143.09307472727
100143.09309050207
100143.09310692377
100143.09312402576
100143.09314183939
100143.09316039456
100143.09317972575
100143.09319987471
100143.09322088731
100143.09324280787
100143.09326567881
100143.09328954648
100143.09331446476
100143.09334049256
100143.09336768834
100143.0933961087
100143.09342581379
100143.09345687284
100143.09348936169
100143.0935233545
100143.09355891991
100143.09359612867
100143.09363506317
100143.0936758157
100143.09371847635
100143.09376312277
100143.09380982182
100143.09385863641
100143.0939096228
100143.09396281499
100143.09401820284
100143.09407571067
100143.09413517016
100143.0941962753
100143.09425850847
100143.09432102385
100143.09438249192
100143.0944409245
100143.09449351749
100143.0945366599
100143.09456637039
100143.09457930898
100143.09457422474
100143.09455318731
100143.09452155151
100143.09448630703
100143.09445328743
100143.09442484296
100143.09439919138
100143.09437164971
100143.09433735065
100143.09429437335
100143.09424183963
100143.09417838187
100143.09410327791
100143.09401718846
100143.09392161229
100143.09381845225
100143.09370951548
100143.09359778761
100143.09348553656
100143.09337514213
100143.09326960306
100143.0931711798
100143.09308116784
100143.09299985116
100143.09292661717
100143.09286021331
100143.09279916839
100143.09274232561
100143.0926893638
100143.0926411636
100143.09259989968
100143.09256881029
100143.09255169501
100143.09255226477
100143.09257348983
100143.09261699651
100143.09268250338
100143.09276751432
100143.09286775971
100143.09297754327
100143.09309598377
100143.0932191309
100143.09333783829
100143.09344550941
100143.09354139587
100143.09362612711
100143.09369943882
100143.09376125572
100143.09381191067
100143.09384827584
100143.09387009841
100143.09388027628