/*--------------------------------*- C++ -*----------------------------------*\
  =========                 |
  \\      /  F ield         | OpenFOAM: The Open Source CFD Toolbox
   \\    /   O peration     | Website:  https://openfoam.org
    \\  /    A nd           | Version:  12
     \\/     M anipulation  |
\*---------------------------------------------------------------------------*/
FoamFile
{
    format      ascii;
    class       volScalarField;
    location    "10";
    object      p;
}
// * * * * * * * * * * * * * * * * * * * * * * * * * * * * * * * * * * * * * //

dimensions      [1 -1 -2 0 0 0 0];

internalField   nonuniform List<scalar> 
40000
(
100143.48201
100143.482252
100143.482439
100143.48255
100143.482612
100143.482649
100143.482673
100143.482691
100143.482705
100143.482716
100143.482726
100143.482734
100143.482741
100143.482748
100143.482753
100143.482759
100143.482764
100143.48277
100143.482775
100143.48278
100143.482784
100143.482789
100143.482794
100143.482799
100143.482804
100143.482809
100143.482814
100143.482819
100143.482825
100143.48283
100143.482836
100143.482842
100143.482848
100143.482854
100143.482861
100143.482867
100143.482874
100143.482881
100143.482889
100143.482896
100143.482904
100143.482913
100143.482921
100143.48293
100143.482939
100143.482949
100143.482959
100143.482969
100143.48298
100143.482991
100143.483002
100143.483014
100143.483027
100143.48304
100143.483053
100143.483067
100143.483082
100143.483097
100143.483113
100143.48313
100143.483147
100143.483165
100143.483184
100143.483204
100143.483224
100143.483245
100143.483268
100143.483291
100143.483315
100143.483341
100143.483368
100143.483396
100143.483425
100143.483456
100143.483488
100143.483521
100143.483557
100143.483594
100143.483633
100143.483674
100143.483717
100143.483763
100143.483811
100143.483861
100143.483914
100143.48397
100143.48403
100143.484092
100143.484158
100143.484228
100143.484302
100143.484381
100143.484464
100143.484552
100143.484646
100143.484746
100143.484853
100143.484966
100143.485087
100143.485215
100143.485351
100143.485494
100143.485642
100143.485794
100143.485946
100143.486094
100143.486235
100143.486364
100143.486478
100143.486568
100143.486627
100143.486654
100143.486647
100143.486608
100143.486541
100143.48645
100143.48634
100143.486219
100143.486095
100143.485975
100143.485868
100143.485782
100143.485722
100143.48569
100143.485683
100143.485705
100143.485749
100143.485809
100143.485878
100143.485948
100143.486015
100143.486075
100143.486128
100143.486177
100143.486223
100143.486269
100143.486316
100143.486363
100143.486409
100143.486452
100143.486492
100143.486527
100143.486557
100143.486581
100143.486598
100143.486609
100143.486613
100143.48661
100143.4866
100143.486583
100143.48656
100143.486531
100143.486496
100143.486455
100143.48641
100143.486362
100143.48631
100143.486255
100143.486199
100143.486141
100143.486082
100143.486023
100143.485962
100143.485901
100143.485839
100143.485777
100143.485713
100143.485648
100143.485583
100143.485518
100143.485453
100143.485389
100143.485328
100143.485272
100143.485221
100143.48518
100143.485152
100143.485139
100143.485149
100143.485187
100143.485262
100143.485384
100143.48557
100143.485836
100143.486209
100143.486723
100143.487421
100143.488359
100143.48957
100143.491106
100143.493009
100143.495289
100143.497894
100143.500666
100143.503294
100143.505305
100143.506238
100143.50602
100143.505197
100143.504886
100143.424162
100143.424127
100143.424166
100143.424217
100143.424257
100143.424285
100143.424306
100143.424323
100143.424336
100143.424346
100143.424356
100143.424364
100143.424371
100143.424377
100143.424383
100143.424389
100143.424394
100143.4244
100143.424405
100143.42441
100143.424414
100143.424419
100143.424424
100143.424429
100143.424434
100143.424439
100143.424444
100143.42445
100143.424455
100143.424461
100143.424466
100143.424472
100143.424478
100143.424484
100143.424491
100143.424498
100143.424504
100143.424512
100143.424519
100143.424527
100143.424535
100143.424543
100143.424551
100143.42456
100143.424569
100143.424579
100143.424589
100143.424599
100143.42461
100143.424621
100143.424633
100143.424645
100143.424657
100143.42467
100143.424684
100143.424698
100143.424712
100143.424728
100143.424744
100143.42476
100143.424777
100143.424795
100143.424814
100143.424834
100143.424854
100143.424876
100143.424898
100143.424921
100143.424946
100143.424971
100143.424998
100143.425026
100143.425055
100143.425086
100143.425118
100143.425152
100143.425187
100143.425224
100143.425263
100143.425304
100143.425347
100143.425393
100143.425441
100143.425491
100143.425544
100143.4256
100143.42566
100143.425722
100143.425788
100143.425858
100143.425932
100143.426011
100143.426094
100143.426182
100143.426276
100143.426376
100143.426483
100143.426597
100143.426718
100143.426846
100143.426982
100143.427123
100143.427268
100143.427415
100143.427559
100143.427696
100143.427823
100143.427935
100143.428027
100143.428091
100143.428125
100143.428126
100143.428094
100143.428032
100143.427941
100143.427829
100143.4277
100143.427563
100143.427423
100143.427291
100143.427173
100143.427076
100143.427006
100143.426967
100143.426962
100143.426984
100143.42703
100143.427093
100143.427163
100143.427233
100143.427295
100143.427345
100143.427385
100143.427415
100143.427442
100143.427469
100143.427497
100143.427529
100143.427561
100143.427593
100143.427622
100143.427648
100143.42767
100143.427687
100143.4277
100143.427707
100143.427708
100143.427704
100143.427693
100143.427676
100143.427652
100143.427622
100143.427587
100143.427547
100143.427501
100143.427452
100143.4274
100143.427345
100143.427287
100143.427228
100143.427168
100143.427107
100143.427044
100143.426981
100143.426916
100143.42685
100143.426783
100143.426715
100143.426647
100143.426577
100143.426509
100143.426441
100143.426376
100143.426315
100143.426261
100143.426215
100143.426181
100143.426163
100143.426166
100143.426195
100143.426259
100143.426367
100143.426533
100143.426772
100143.427107
100143.427568
100143.428192
100143.42902
100143.430119
100143.431535
100143.433301
100143.435427
100143.437866
100143.440476
100143.44298
100143.444962
100143.446011
100143.446035
100143.445539
100143.445171
100143.365969
100143.365867
100143.365861
100143.365882
100143.365905
100143.365926
100143.365943
100143.365957
100143.365968
100143.365978
100143.365987
100143.365995
100143.366002
100143.366008
100143.366014
100143.36602
100143.366025
100143.36603
100143.366035
100143.36604
100143.366045
100143.36605
100143.366054
100143.366059
100143.366064
100143.366069
100143.366075
100143.36608
100143.366085
100143.366091
100143.366096
100143.366102
100143.366108
100143.366115
100143.366121
100143.366128
100143.366135
100143.366142
100143.366149
100143.366157
100143.366165
100143.366173
100143.366181
100143.36619
100143.366199
100143.366209
100143.366219
100143.366229
100143.36624
100143.366251
100143.366262
100143.366274
100143.366287
100143.3663
100143.366313
100143.366327
100143.366342
100143.366357
100143.366373
100143.36639
100143.366407
100143.366425
100143.366444
100143.366463
100143.366484
100143.366505
100143.366527
100143.36655
100143.366575
100143.3666
100143.366627
100143.366655
100143.366684
100143.366714
100143.366746
100143.36678
100143.366815
100143.366852
100143.366891
100143.366932
100143.366975
100143.36702
100143.367068
100143.367118
100143.367171
100143.367227
100143.367286
100143.367348
100143.367414
100143.367483
100143.367557
100143.367635
100143.367718
100143.367805
100143.367899
100143.367998
100143.368103
100143.368215
100143.368333
100143.368457
100143.368586
100143.368718
100143.36885
100143.36898
100143.369105
100143.369221
100143.369323
100143.369409
100143.36947
100143.369503
100143.369506
100143.369478
100143.369419
100143.369332
100143.369222
100143.369092
100143.36895
100143.3688
100143.368652
100143.368512
100143.368391
100143.368296
100143.368231
100143.36819
100143.368179
100143.368198
100143.368241
100143.3683
100143.368365
100143.368425
100143.368476
100143.368516
100143.368544
100143.368565
100143.368581
100143.368598
100143.368616
100143.368637
100143.36866
100143.368684
100143.368709
100143.368733
100143.368755
100143.368775
100143.368792
100143.368804
100143.368812
100143.368814
100143.36881
100143.368799
100143.368782
100143.368759
100143.36873
100143.368695
100143.368654
100143.368609
100143.36856
100143.368506
100143.36845
100143.368391
100143.368329
100143.368264
100143.368198
100143.368129
100143.368058
100143.367985
100143.367911
100143.367835
100143.367757
100143.367679
100143.367602
100143.367526
100143.367452
100143.367383
100143.36732
100143.367265
100143.367221
100143.367192
100143.36718
100143.367192
100143.367233
100143.367312
100143.367439
100143.367627
100143.367895
100143.368272
100143.368795
100143.369509
100143.370456
100143.371687
100143.373246
100143.375153
100143.377379
100143.37981
100143.382215
100143.384247
100143.385539
100143.385925
100143.385654
100143.385478
100143.307664
100143.307562
100143.307538
100143.307543
100143.307556
100143.30757
100143.307583
100143.307594
100143.307604
100143.307612
100143.30762
100143.307627
100143.307634
100143.30764
100143.307645
100143.307651
100143.307656
100143.307661
100143.307666
100143.30767
100143.307675
100143.30768
100143.307685
100143.30769
100143.307695
100143.3077
100143.307705
100143.30771
100143.307715
100143.307721
100143.307726
100143.307732
100143.307738
100143.307745
100143.307751
100143.307758
100143.307764
100143.307772
100143.307779
100143.307787
100143.307794
100143.307803
100143.307811
100143.30782
100143.307829
100143.307839
100143.307848
100143.307859
100143.307869
100143.30788
100143.307892
100143.307904
100143.307916
100143.307929
100143.307943
100143.307957
100143.307971
100143.307986
100143.308002
100143.308019
100143.308036
100143.308054
100143.308072
100143.308092
100143.308112
100143.308133
100143.308155
100143.308179
100143.308203
100143.308228
100143.308254
100143.308282
100143.308311
100143.308341
100143.308373
100143.308407
100143.308442
100143.308478
100143.308517
100143.308558
100143.3086
100143.308645
100143.308692
100143.308742
100143.308794
100143.30885
100143.308908
100143.308969
100143.309034
100143.309103
100143.309175
100143.309252
100143.309333
100143.309419
100143.30951
100143.309606
100143.309708
100143.309814
100143.309924
100143.310037
100143.31015
100143.310262
100143.31037
100143.310473
100143.310568
100143.310654
100143.310726
100143.31078
100143.31081
100143.310814
100143.31079
100143.310738
100143.310659
100143.310557
100143.310434
100143.310297
100143.310149
100143.309997
100143.309849
100143.309713
100143.309599
100143.309501
100143.309422
100143.309375
100143.309364
100143.30938
100143.309417
100143.309466
100143.309517
100143.309564
100143.3096
100143.309626
100143.309641
100143.30965
100143.309656
100143.309663
100143.309674
100143.30969
100143.309712
100143.309738
100143.309768
100143.3098
100143.309832
100143.309865
100143.309895
100143.309922
100143.309944
100143.309961
100143.30997
100143.309973
100143.309968
100143.309956
100143.309937
100143.30991
100143.309876
100143.309836
100143.309791
100143.309739
100143.309683
100143.309621
100143.309556
100143.309486
100143.309413
100143.309337
100143.309257
100143.309175
100143.30909
100143.309004
100143.308918
100143.308831
100143.308745
100143.308661
100143.308581
100143.308506
100143.308436
100143.308375
100143.308324
100143.308285
100143.308261
100143.308256
100143.308274
100143.308322
100143.308405
100143.308533
100143.308722
100143.309
100143.3094
100143.309951
100143.310698
100143.311693
100143.312987
100143.314617
100143.316579
100143.318805
100143.32112
100143.323249
100143.324863
100143.325721
100143.325876
100143.325926
100143.249325
100143.24923
100143.249202
100143.2492
100143.249206
100143.249215
100143.249223
100143.249232
100143.24924
100143.249247
100143.249254
100143.24926
100143.249266
100143.249272
100143.249277
100143.249282
100143.249287
100143.249292
100143.249296
100143.249301
100143.249306
100143.249311
100143.249315
100143.24932
100143.249325
100143.24933
100143.249335
100143.24934
100143.249345
100143.249351
100143.249356
100143.249362
100143.249368
100143.249374
100143.249381
100143.249387
100143.249394
100143.249401
100143.249409
100143.249416
100143.249424
100143.249432
100143.249441
100143.249449
100143.249459
100143.249468
100143.249478
100143.249488
100143.249499
100143.24951
100143.249521
100143.249533
100143.249545
100143.249558
100143.249571
100143.249585
100143.2496
100143.249615
100143.249631
100143.249647
100143.249664
100143.249682
100143.2497
100143.24972
100143.24974
100143.249761
100143.249783
100143.249806
100143.24983
100143.249855
100143.249881
100143.249908
100143.249937
100143.249967
100143.249998
100143.250031
100143.250066
100143.250102
100143.25014
100143.25018
100143.250223
100143.250267
100143.250313
100143.250362
100143.250414
100143.250468
100143.250525
100143.250585
100143.250649
100143.250716
100143.250787
100143.250861
100143.25094
100143.251022
100143.251109
100143.2512
100143.251294
100143.251389
100143.251486
100143.25158
100143.251669
100143.251752
100143.251828
100143.251897
100143.251959
100143.252013
100143.252055
100143.25208
100143.252086
100143.252068
100143.252025
100143.251958
100143.25187
100143.251761
100143.251637
100143.2515
100143.251356
100143.251211
100143.251071
100143.250941
100143.25082
100143.250717
100143.250642
100143.250595
100143.250575
100143.250576
100143.250594
100143.250621
100143.250649
100143.250673
100143.25069
100143.250698
100143.2507
100143.250699
100143.250699
100143.250703
100143.250714
100143.250734
100143.250763
100143.2508
100143.250844
100143.250893
100143.250944
100143.250996
100143.251046
100143.251093
100143.251133
100143.251167
100143.251193
100143.25121
100143.251219
100143.251219
100143.251209
100143.251191
100143.251165
100143.25113
100143.251087
100143.251037
100143.250979
100143.250915
100143.250845
100143.25077
100143.250689
100143.250605
100143.250516
100143.250425
100143.250332
100143.250238
100143.250143
100143.250049
100143.249958
100143.249869
100143.249785
100143.249706
100143.249633
100143.249569
100143.249513
100143.249468
100143.249435
100143.249416
100143.249415
100143.249433
100143.249476
100143.24955
100143.24967
100143.249857
100143.250126
100143.250506
100143.25104
100143.25178
100143.252783
100143.2541
100143.25576
100143.257739
100143.25993
100143.262127
100143.264047
100143.265409
100143.266071
100143.266177
100143.190972
100143.190887
100143.190858
100143.190851
100143.190853
100143.190858
100143.190864
100143.19087
100143.190877
100143.190883
100143.190888
100143.190894
100143.190899
100143.190904
100143.190909
100143.190914
100143.190918
100143.190923
100143.190928
100143.190932
100143.190937
100143.190941
100143.190946
100143.19095
100143.190955
100143.19096
100143.190965
100143.19097
100143.190975
100143.190981
100143.190986
100143.190992
100143.190998
100143.191004
100143.19101
100143.191017
100143.191024
100143.191031
100143.191038
100143.191046
100143.191053
100143.191061
100143.19107
100143.191079
100143.191088
100143.191097
100143.191107
100143.191117
100143.191127
100143.191138
100143.19115
100143.191161
100143.191174
100143.191186
100143.1912
100143.191213
100143.191228
100143.191243
100143.191258
100143.191274
100143.191291
100143.191309
100143.191327
100143.191346
100143.191366
100143.191387
100143.191409
100143.191431
100143.191455
100143.19148
100143.191506
100143.191533
100143.191561
100143.191591
100143.191622
100143.191654
100143.191688
100143.191724
100143.191761
100143.191801
100143.191842
100143.191885
100143.191931
100143.191979
100143.192029
100143.192082
100143.192138
100143.192196
100143.192258
100143.192322
100143.19239
100143.192461
100143.192536
100143.192613
100143.192694
100143.192776
100143.192859
100143.19294
100143.193017
100143.193086
100143.193146
100143.193196
100143.193236
100143.193269
100143.193298
100143.193321
100143.193337
100143.193339
100143.193326
100143.193295
100143.193243
100143.193171
100143.193081
100143.192976
100143.192857
100143.192729
100143.192595
100143.19246
100143.192327
100143.192198
100143.192081
100143.191983
100143.191906
100143.19185
100143.191815
100143.191795
100143.191788
100143.191787
100143.191787
100143.191785
100143.191779
100143.191769
100143.191759
100143.191751
100143.19175
100143.191758
100143.191779
100143.191813
100143.191859
100143.191917
100143.191984
100143.192055
100143.192129
100143.192202
100143.192273
100143.192338
100143.192396
100143.192445
100143.192485
100143.192514
100143.192533
100143.192541
100143.192539
100143.192527
100143.192504
100143.192472
100143.19243
100143.19238
100143.192321
100143.192253
100143.192179
100143.192098
100143.192012
100143.191921
100143.191826
100143.191729
100143.19163
100143.191531
100143.191433
100143.191336
100143.191243
100143.191153
100143.191069
100143.190991
100143.190919
100143.190855
100143.190799
100143.190752
100143.190714
100143.190687
100143.190672
100143.19067
100143.190683
100143.190716
100143.190781
100143.190885
100143.191036
100143.191262
100143.191599
100143.192095
100143.192809
100143.193805
100143.195139
100143.196831
100143.198837
100143.201021
100143.203147
100143.204903
100143.205946
100143.206092
100143.132612
100143.132536
100143.132507
100143.132498
100143.132497
100143.1325
100143.132504
100143.132509
100143.132513
100143.132518
100143.132523
100143.132528
100143.132532
100143.132537
100143.132541
100143.132546
100143.13255
100143.132554
100143.132559
100143.132563
100143.132567
100143.132572
100143.132576
100143.132581
100143.132586
100143.13259
100143.132595
100143.1326
100143.132605
100143.132611
100143.132616
100143.132622
100143.132628
100143.132634
100143.13264
100143.132646
100143.132653
100143.13266
100143.132667
100143.132675
100143.132683
100143.132691
100143.132699
100143.132707
100143.132716
100143.132726
100143.132735
100143.132745
100143.132756
100143.132767
100143.132778
100143.132789
100143.132802
100143.132814
100143.132827
100143.132841
100143.132855
100143.13287
100143.132885
100143.132901
100143.132918
100143.132935
100143.132953
100143.132972
100143.132992
100143.133012
100143.133034
100143.133056
100143.13308
100143.133104
100143.133129
100143.133156
100143.133184
100143.133213
100143.133243
100143.133275
100143.133308
100143.133343
100143.13338
100143.133418
100143.133459
100143.133501
100143.133545
100143.133591
100143.13364
100143.133691
100143.133745
100143.133801
100143.13386
100143.133921
100143.133985
100143.134052
100143.134121
100143.134192
100143.134263
100143.134335
100143.134403
100143.134466
100143.13452
100143.134562
100143.13459
100143.134604
100143.134608
100143.134606
100143.134603
100143.1346
100143.134593
100143.134578
100143.134552
100143.134513
100143.134459
100143.13439
100143.134305
100143.134208
100143.1341
100143.133983
100143.133861
100143.133736
100143.133611
100143.133492
100143.133382
100143.133285
100143.133202
100143.133134
100143.13308
100143.133037
100143.133002
100143.132972
100143.132944
100143.132916
100143.13289
100143.132866
100143.132849
100143.132842
100143.132848
100143.13287
100143.13291
100143.132967
100143.13304
100143.133124
100143.133216
100143.133312
100143.133406
100143.133501
100143.133591
100143.133673
100143.133743
100143.133802
100143.133846
100143.133878
100143.133901
100143.133912
100143.133913
100143.133903
100143.133881
100143.133849
100143.133807
100143.133755
100143.133693
100143.133623
100143.133546
100143.133461
100143.133371
100143.133277
100143.133179
100143.133079
100143.132979
100143.132879
100143.132781
100143.132686
100143.132595
100143.132509
100143.132429
100143.132355
100143.132288
100143.132229
100143.132177
100143.132132
100143.132096
100143.132068
100143.132048
100143.132036
100143.132033
100143.132044
100143.13207
100143.132108
100143.13217
100143.132274
100143.13245
100143.132737
100143.133191
100143.133882
100143.134884
100143.136255
100143.138008
100143.140074
100143.142265
100143.144253
100143.145561
100143.145785
100143.074247
100143.074179
100143.074152
100143.074141
100143.074139
100143.07414
100143.074143
100143.074146
100143.07415
100143.074154
100143.074158
100143.074162
100143.074166
100143.07417
100143.074174
100143.074178
100143.074182
100143.074186
100143.07419
100143.074194
100143.074198
100143.074202
100143.074207
100143.074211
100143.074216
100143.07422
100143.074225
100143.07423
100143.074235
100143.07424
100143.074246
100143.074251
100143.074257
100143.074263
100143.074269
100143.074276
100143.074282
100143.074289
100143.074296
100143.074304
100143.074311
100143.074319
100143.074328
100143.074336
100143.074345
100143.074354
100143.074364
100143.074374
100143.074384
100143.074394
100143.074406
100143.074417
100143.074429
100143.074442
100143.074455
100143.074468
100143.074482
100143.074497
100143.074512
100143.074527
100143.074544
100143.074561
100143.074579
100143.074597
100143.074617
100143.074637
100143.074658
100143.07468
100143.074703
100143.074727
100143.074751
100143.074778
100143.074805
100143.074833
100143.074863
100143.074894
100143.074926
100143.07496
100143.074996
100143.075033
100143.075072
100143.075113
100143.075155
100143.0752
100143.075247
100143.075296
100143.075347
100143.0754
100143.075455
100143.075513
100143.075572
100143.075633
100143.075695
100143.075758
100143.075819
100143.075878
100143.07593
100143.075974
100143.076003
100143.076016
100143.076011
100143.07599
100143.075958
100143.075923
100143.07589
100143.075862
100143.075836
100143.075808
100143.075774
100143.075731
100143.075679
100143.075615
100143.07554
100143.075454
100143.075358
100143.075255
100143.075146
100143.075035
100143.074922
100143.074812
100143.074706
100143.074608
100143.074518
100143.074437
100143.074363
100143.074297
100143.074236
100143.074179
100143.074126
100143.074078
100143.074037
100143.074006
100143.073989
100143.073989
100143.07401
100143.074054
100143.074119
100143.074204
100143.074305
100143.074414
100143.074533
100143.074656
100143.074775
100143.074882
100143.074978
100143.075063
100143.075136
100143.075198
100143.075249
100143.075285
100143.075307
100143.075317
100143.075317
100143.075305
100143.075282
100143.075248
100143.075204
100143.07515
100143.075087
100143.075015
100143.074936
100143.07485
100143.074759
100143.074665
100143.074567
100143.074469
100143.07437
100143.074273
100143.074179
100143.074089
100143.074004
100143.073925
100143.073852
100143.073786
100143.073726
100143.073675
100143.07363
100143.073592
100143.073561
100143.073537
100143.073518
100143.073505
100143.073502
100143.073505
100143.073505
100143.073504
100143.07351
100143.073536
100143.0736
100143.07373
100143.073974
100143.074399
100143.075088
100143.076125
100143.07757
100143.079414
100143.081527
100143.083587
100143.085051
100143.085353
100143.01588
100143.015819
100143.015792
100143.015781
100143.015778
100143.015779
100143.01578
100143.015783
100143.015785
100143.015789
100143.015792
100143.015795
100143.015799
100143.015802
100143.015806
100143.01581
100143.015813
100143.015817
100143.015821
100143.015825
100143.015829
100143.015833
100143.015837
100143.015842
100143.015846
100143.015851
100143.015855
100143.01586
100143.015865
100143.01587
100143.015875
100143.015881
100143.015887
100143.015892
100143.015899
100143.015905
100143.015911
100143.015918
100143.015925
100143.015932
100143.01594
100143.015948
100143.015956
100143.015964
100143.015973
100143.015982
100143.015992
100143.016001
100143.016011
100143.016022
100143.016033
100143.016044
100143.016056
100143.016068
100143.016081
100143.016094
100143.016108
100143.016123
100143.016137
100143.016153
100143.016169
100143.016186
100143.016203
100143.016222
100143.01624
100143.01626
100143.016281
100143.016302
100143.016325
100143.016348
100143.016372
100143.016398
100143.016424
100143.016452
100143.016481
100143.016511
100143.016542
100143.016575
100143.016609
100143.016645
100143.016683
100143.016722
100143.016762
100143.016805
100143.016849
100143.016895
100143.016943
100143.016993
100143.017044
100143.017097
100143.017151
100143.017206
100143.01726
100143.017313
100143.017363
100143.017408
100143.017444
100143.017467
100143.017472
100143.017457
100143.017421
100143.017367
100143.017302
100143.017234
100143.017172
100143.01712
100143.017076
100143.017038
100143.016999
100143.016956
100143.016907
100143.01685
100143.016785
100143.016711
100143.016629
100143.016541
100143.016447
100143.016348
100143.016245
100143.016142
100143.016039
100143.015938
100143.01584
100143.015746
100143.015656
100143.015568
100143.015485
100143.015407
100143.015335
100143.015272
100143.015222
100143.015189
100143.015178
100143.015191
100143.015231
100143.015297
100143.015387
100143.015498
100143.015626
100143.015764
100143.015901
100143.016032
100143.016157
100143.016272
100143.016376
100143.016466
100143.016543
100143.016608
100143.016659
100143.016699
100143.016727
100143.016739
100143.016737
100143.016723
100143.016698
100143.016663
100143.016617
100143.016562
100143.016498
100143.016426
100143.016347
100143.016262
100143.016173
100143.016081
100143.015987
100143.015892
100143.015799
100143.015708
100143.01562
100143.015537
100143.01546
100143.015389
100143.015324
100143.015266
100143.015215
100143.015171
100143.015134
100143.015102
100143.015077
100143.01506
100143.015051
100143.015046
100143.015044
100143.015038
100143.015028
100143.015014
100143.015
100143.01499
100143.014994
100143.015027
100143.015123
100143.015341
100143.01576
100143.01648
100143.01759
100143.019138
100143.021051
100143.023045
100143.024561
100143.02492
100142.957512
100142.957456
100142.957431
100142.95742
100142.957417
100142.957416
100142.957417
100142.957419
100142.957421
100142.957423
100142.957426
100142.957429
100142.957432
100142.957435
100142.957438
100142.957441
100142.957445
100142.957448
100142.957452
100142.957456
100142.95746
100142.957464
100142.957468
100142.957472
100142.957476
100142.95748
100142.957485
100142.95749
100142.957495
100142.9575
100142.957505
100142.95751
100142.957516
100142.957522
100142.957528
100142.957534
100142.95754
100142.957547
100142.957554
100142.957561
100142.957568
100142.957576
100142.957584
100142.957592
100142.957601
100142.95761
100142.957619
100142.957629
100142.957639
100142.957649
100142.95766
100142.957671
100142.957683
100142.957695
100142.957707
100142.95772
100142.957734
100142.957748
100142.957762
100142.957778
100142.957793
100142.95781
100142.957827
100142.957845
100142.957863
100142.957883
100142.957903
100142.957924
100142.957945
100142.957968
100142.957992
100142.958016
100142.958042
100142.958069
100142.958096
100142.958126
100142.958156
100142.958187
100142.95822
100142.958255
100142.95829
100142.958327
100142.958366
100142.958406
100142.958448
100142.958491
100142.958535
100142.958581
100142.958628
100142.958675
100142.958723
100142.958771
100142.958817
100142.95886
100142.958898
100142.958928
100142.958947
100142.958951
100142.958934
100142.958894
100142.958829
100142.958745
100142.958649
100142.958551
100142.958461
100142.958385
100142.958324
100142.958274
100142.95823
100142.958188
100142.958143
100142.958094
100142.958039
100142.957977
100142.957908
100142.957833
100142.95775
100142.957661
100142.957567
100142.95747
100142.957369
100142.957265
100142.957161
100142.957056
100142.956951
100142.956847
100142.956746
100142.956651
100142.956565
100142.956493
100142.956439
100142.956408
100142.956403
100142.956428
100142.956483
100142.956566
100142.956675
100142.956809
100142.956955
100142.957104
100142.957252
100142.957395
100142.95753
100142.957654
100142.957765
100142.957863
100142.957947
100142.958016
100142.958072
100142.958114
100142.958143
100142.95816
100142.958163
100142.958152
100142.958127
100142.958091
100142.958045
100142.957991
100142.957928
100142.957857
100142.957781
100142.957699
100142.957614
100142.957526
100142.957438
100142.957349
100142.957262
100142.957178
100142.957098
100142.957023
100142.956954
100142.95689
100142.956833
100142.956783
100142.956736
100142.9567
100142.956671
100142.956649
100142.956632
100142.956619
100142.95661
100142.956604
100142.956599
100142.956593
100142.956584
100142.956571
100142.956557
100142.956543
100142.956532
100142.956526
100142.956541
100142.956622
100142.956837
100142.957284
100142.958072
100142.959289
100142.960921
100142.962741
100142.964216
100142.964604
100142.899144
100142.899092
100142.899068
100142.899057
100142.899053
100142.899052
100142.899053
100142.899054
100142.899055
100142.899057
100142.899059
100142.899062
100142.899064
100142.899067
100142.89907
100142.899073
100142.899076
100142.89908
100142.899083
100142.899087
100142.89909
100142.899094
100142.899098
100142.899102
100142.899106
100142.89911
100142.899115
100142.899119
100142.899124
100142.899129
100142.899134
100142.899139
100142.899145
100142.89915
100142.899156
100142.899162
100142.899169
100142.899175
100142.899182
100142.899189
100142.899196
100142.899204
100142.899212
100142.89922
100142.899228
100142.899237
100142.899246
100142.899256
100142.899266
100142.899276
100142.899286
100142.899297
100142.899309
100142.899321
100142.899333
100142.899346
100142.899359
100142.899373
100142.899387
100142.899402
100142.899417
100142.899433
100142.89945
100142.899467
100142.899485
100142.899504
100142.899523
100142.899544
100142.899565
100142.899587
100142.89961
100142.899633
100142.899658
100142.899684
100142.899711
100142.899739
100142.899768
100142.899798
100142.899829
100142.899862
100142.899895
100142.89993
100142.899967
100142.900004
100142.900043
100142.900082
100142.900123
100142.900164
100142.900206
100142.900248
100142.900289
100142.900329
100142.900366
100142.900399
100142.900425
100142.900442
100142.900445
100142.900431
100142.900394
100142.900332
100142.900244
100142.900134
100142.90001
100142.899884
100142.899767
100142.899666
100142.899585
100142.899521
100142.899469
100142.899425
100142.899383
100142.89934
100142.899294
100142.899242
100142.899184