/*--------------------------------*- C++ -*----------------------------------*\
  =========                 |
  \\      /  F ield         | OpenFOAM: The Open Source CFD Toolbox
   \\    /   O peration     | Website:  https://openfoam.org
    \\  /    A nd           | Version:  12
     \\/     M anipulation  |
\*---------------------------------------------------------------------------*/
FoamFile
{
    format      ascii;
    class       volScalarField;
    location    "10";
    object      p_rgh;
}
// * * * * * * * * * * * * * * * * * * * * * * * * * * * * * * * * * * * * * //

dimensions      [1 -1 -2 0 0 0 0];

internalField   nonuniform List<scalar> 
40000
(
143.52923314667396
143.52988195449112
143.53015755052351
143.5302899505613
143.53035707252917
143.53039576761427
143.53042102978625
143.53043915940401
143.53045306062992
143.53046425889926
143.53047363278759
143.53048172644401
143.53048889737974
143.53049539144013
143.53050138414386
143.53050700434608
143.53051234941969
143.53051749530377
143.53052250250627
143.53052742026378
143.53053228917895
143.53053714317767
143.53054201116998
143.53054691820884
143.53055188658698
143.53055693719904
143.5305620902266
143.53056735594706
143.53057275347862
143.53057829343049
143.53058398778728
143.53058985042841
143.53059589485488
143.5306021336244
143.53060857869798
143.53061524193683
143.53062213526388
143.53062927063701
143.53063666023419
143.53064431675352
143.53065225344761
143.53066048394214
143.53066902218362
143.53067788258215
143.53068708012805
143.53069663034032
143.53070654916118
143.53071685300233
143.53072755894593
143.53073868496318
143.53075024998853
143.53076227388391
143.53077477755542
143.53078778331155
143.53080131513752
143.53081539851286
143.53083006011289
143.53084532810976
143.53086123283646
143.5308778067253
143.53089508354483
143.53091309846866
143.53093188939215
143.53095149764573
143.53097196693807
143.53099334233704
143.53101567146976
143.53103900677843
143.53106340561291
143.53108892767904
143.53111563350748
143.5311435871059
143.53117286051011
143.53120353489325
143.531235697065
143.53126943613333
143.53130484481025
143.53134202391757
143.5313810848281
143.53142214756789
143.53146533831506
143.53151079130481
143.53155865424503
143.53160909065562
143.53166227547996
143.53171838931732
143.53177762022861
143.5318401747393
143.53190628909439
143.53197623058742
143.53205028950768
143.53212877342128
143.53221201397784
143.5323003826885
143.53239430157149
143.53249423870582
143.5326006878044
143.53271413127587
143.53283497964162
143.53296347686637
143.53309956555211
143.53324271373376
143.53339172554072
143.53354458640163
143.53369840207284
143.5338495028098
143.53399382062904
143.53412761673809
143.53424768047645
143.53434507719007
143.53441272248844
143.53444878555635
143.53445235403109
143.53442430851516
143.5343673876273
143.53428594452609
143.53418569811237
143.53407350542707
143.53395709264848
143.53384467215145
143.53374438987279
143.53366360149701
143.53360818436465
143.53358150747829
143.53357862512593
143.53360376317812
143.53365177807922
143.53371632756762
143.53378937866989
143.53386417808886
143.53393579399068
143.53400151545134
143.53406112519318
143.53411631698859
143.53416954785519
143.53422287945818
143.5342772165375
143.5343321731724
143.53438644429744
143.53443834775248
143.53448625457872
143.53452881163471
143.53456500110471
143.53459412013169
143.53461573552639
143.53462963773603
143.53463580139879
143.53463434827773
143.53462550989806
143.53460957842543
143.53458687052239
143.53455780436252
143.5345230178807
143.53448304667302
143.53443853270417
143.53439017977672
143.53433869932988
143.53428477050318
143.53422899589566
143.53417186410647
143.53411372961656
143.53405481512129
143.53399522757223
143.53393497374094
143.53387398399303
143.53381215988591
143.53374943989692
143.53368586747976
143.53362164815812
143.53355719509702
143.53349317023421
143.53343052561908
143.53337054567956
143.53331489616147
143.53326568238896
143.53322553868273
143.53319775822536
143.53318647393897
143.53319690867414
143.53323572139078
143.53331147236889
143.53343523285707
143.53362140822722
143.53388892492308
143.5342629631738
143.53477738190833
143.53547728564686
143.53641571721417
143.53762868428166
143.53916614899785
143.54107135483667
143.54335441605502
143.54596321077875
143.54874066996325
143.55137491819315
143.55339545190847
143.55434005982721
143.55413824579142
143.55334425283527
143.5530717517928
143.52862502087768
143.52988769624071
143.53020313624188
143.53031469879554
143.53036882985546
143.53040111422573
143.53042328360155
143.53043989162839
143.53045305788365
143.53046391759059
143.53047315291104
143.53048120748826
143.53048838692942
143.53049491046394
143.53050094037374
143.53050659946558
143.53051198233837
143.53051716366613
143.53052220323349
143.53052714987214
143.53053204434113
143.53053692090916
143.5305418087982
143.5305467333051
143.53055171654333
143.53055677809829
143.53056193646864
143.53056721876467
143.53057263072921
143.5305781802706
143.53058388314236
143.5305897536052
143.53059580499877
143.53060204995191
143.53060850058552
143.53061516879387
143.53062206648877
143.53062920573717
143.53063659885899
143.53064425855192
143.53065219797827
143.53066043077098
143.53066897100902
143.53067783317564
143.53068703215158
143.53069658329446
143.53070650253608
143.53071680642253
143.53072751210595
143.53073863745294
143.53075020129867
143.53076222360204
143.53077472543185
143.53078772906491
143.53080125835845
143.53081533892876
143.53082999771885
143.53084526265434
143.5308611633497
143.530877732151
143.53089500381392
143.53091301418291
143.53093180023885
143.53095140199048
143.53097186351215
143.53099323143371
143.53101555332719
143.53103887916777
143.53106326469651
143.53108877211977
143.53111546667813
143.53114341367225
143.53117268070801
143.53120334322074
143.53123548691201
143.53126920474998
143.5313045932744
143.53134175359259
143.53138079587288
143.53142184132039
143.53146501899744
143.53151046224775
143.5315583114338
143.5316087224447
143.53166187200682
143.53171795338
143.53177716766101
143.53183972187884
143.53190583861593
143.53197577039447
143.53204980721128
143.53212827365181
143.53221152420048
143.53229994798238
143.53239398576153
143.53249414895393
143.53260102441394
143.53271525457697
143.53283748313765
143.53296824948131
143.53310782190675
143.53325599032095
143.53341186220175
143.5335736807607
143.53373866503361
143.53390294714674
143.53406191057897
143.53421083590331
143.53434312705463
143.53445219000133
143.53453130101619
143.53457565260106
143.53458339151129
143.53455557746983
143.5344956206898
143.53440869591518
143.53430127933768
143.53418081969502
143.53405544992472
143.53393361572762
143.53382358997834
143.53373282122882
143.53366727614505
143.53363146365686
143.53363034743953
143.53365664248005
143.53370874318702
143.53377985854019
143.53386222664309
143.53394751487923
143.53402844484629
143.53410020529003
143.5341612614354
143.53421331117406
143.53426001303652
143.53430509540112
143.53435071860275
143.53439695432539
143.53444238002513
143.5344850838066
143.53452343616252
143.53455640775178
143.53458352045357
143.53460463257321
143.53461972542502
143.5346287651341
143.53463165391901
143.53462824815611
143.53461841901037
143.53460214317687
143.5345796155066
143.53455118551938
143.53451706744838
143.53447772443067
143.5344337614338
143.53438583069686
143.53433457446067
143.53428060194378
143.53422446103377
143.53416660421092
143.5341073583906
143.53404691693933
143.5339853591357
143.5339226807111
143.53385882395312
143.53379371328097
143.5337273100273
143.53365968205955
143.53359106749321
143.5335219199404
143.53345293971219
143.53338510526095
143.53331971318988
143.53325841271442
143.53320325445588
143.53315676694098
143.53312206903351
143.53310302642882
143.5331044709144
143.53313251158752
143.53319494752077
143.53330175550855
143.53346568652813
143.53370330487584
143.53403704700972
143.5344974351602
143.53512104542429
143.53594898299039
143.53705095620668
143.53847220903194
143.54024727260122
143.54238609182181
143.5448437053422
143.54747983306464
143.55001786220942
143.55204667518086
143.5531559853822
143.55325752266407
143.55286282023081
143.5526351723085
143.52754744297329
143.52970745428635
143.53020450878441
143.53033513897157
143.53038419563515
143.53041080475086
143.53042924100311
143.53044360604363
143.53045542288908
143.5304654494999
143.53047415447867
143.53048186165302
143.53048880756282
143.53049517008287
143.5305010858589
143.53050666203575
143.53051198352111
143.53051711863574
143.53052212297496
143.53052704229216
143.53053191500601
143.53053677373399
143.53054164649674
143.53054655773522
143.53055152903238
143.53055657964811
143.53056172705701
143.53056698999123
143.5305723867817
143.53057792796756
143.53058362255808
143.53058948499165
143.53059552853429
143.53060176562073
143.53060820818249
143.53061486805814
143.5306217571725
143.53062888754729
143.53063627140148
143.5306439213457
143.53065185046921
143.53066007228114
143.53066860068196
143.53067745000678
143.53068663505854
143.53069617113849
143.53070607409865
143.53071636043018
143.5307270472949
143.53073815255044
143.53074969494921
143.53076169442622
143.53077417218449
143.53078715053383
143.53080065298565
143.53081470476155
143.5308293329509
143.53084456587806
143.53086043275806
143.53087696470845
143.53089419591257
143.53091216300774
143.53093090358507
143.53095045655581
143.53097086442727
143.530992174267
143.53101443573149
143.53103769899332
143.5310620162129
143.53108744556829
143.53111405275706
143.5311419078437
143.53117108187021
143.53120164824546
143.53123368749479
143.53126728964088
143.53130255198505
143.53133957621137
143.53137846959288
143.53141934962974
143.5314623463405
143.53150759866654
143.53155524959891
143.53160544782475
143.53165835636381
143.53171415999324
143.53177306404024
143.5318352864322
143.5319010530244
143.53197060410895
143.53204420922671
143.53212217988136
143.53220487505928
143.53229270957399
143.53238618210042
143.53248592807117
143.53259278712298
143.53270786554751
143.53283255622617
143.53296844586302
143.53311704128751
143.5332793186478
143.53345518194058
143.53364296787842
143.53383911958784
143.53403812311385
143.53423286608052
143.53441490510303
143.53457388393105
143.53469953065417
143.53478486118408
143.53482620082642
143.53482431257405
143.53478293904669
143.53470762064822
143.53460493408866
143.53448210173747
143.53434683637951
143.53420733171794
143.53407248358772
143.53395240587349
143.53385721985856
143.53379005184993
143.53374727454383
143.53373344761255
143.53375314828051
143.53380233395239
143.53387300206884
143.53395478890565
143.53403724018995
143.53411214368464
143.53417490798194
143.53422469142288
143.53426353445369
143.53429502249867
143.5343227725096
143.53434934261207
143.5343758931981
143.53440248210558
143.53442859999035
143.53445360374442
143.53447694664976
143.53449819178121
143.53451688907569
143.53453249595111
143.53454437460937
143.53455183762807
143.53455422407393
143.53455097409301
143.53454170185657
143.53452623959919
143.53450460746672
143.5344769134137
143.53444341110077
143.53440448322789
143.53436058494424
143.53431218094528
143.53425970996608
143.53420357042557
143.53414410576715
143.53408158173079
143.53401617236719
143.53394797362088
143.5338770408618
143.53380343260537
143.5337272458448
143.53364865036357
143.53356793208474
143.53348553915421
143.5334021178754
143.53331853146034
143.53323586944276
143.53315546080199
143.53307890112549
143.53300809012947
143.53294528675892
143.53289320101041
143.53285512555058
143.53283512536026
143.53283832182197
143.53287125645659
143.53294221828233
143.53306154230543
143.53324254672262
143.53350451800887
143.53387703083476
143.53439768782999
143.53511505122913
143.53606967825414
143.53731456670039
143.53889463035708
143.54083222563952
143.54310140770244
143.54559234025305
143.54807754165898
143.55021469255232
143.55164358734478
143.55220377970551
143.55214594858842
143.55225111314402
143.52625330235685
143.5294258133496
143.53016941369822
143.5303471700162
143.5304002459421
143.53042347979979
143.53043836565789
143.53045008744093
143.53046006502709
143.53046881853379
143.5304766297551
143.53048369729152
143.53049017616374
143.53049619100105
143.53050184299423
143.53050721519287
143.53051237614144
143.53051738270281
143.5305222824631
143.53052711561665
143.5305319163046
143.53053671373686
143.53054153346525
143.53054639803113
143.53055132743796
143.53055633991559
143.53056145192889
143.53056667865576
143.53057203895563
143.53057754709252
143.53058321276691
143.53058904859287
143.53059506684573
143.53060127946779
143.53060769809562
143.53061433430855
143.53062119979998
143.53062830640965
143.53063566620011
143.5306432915861
143.53065119537973
143.53065939076097
143.53066789131427
143.53067671114189
143.53068586490534
143.53069536777804
143.53070523544139
143.53071548424074
143.5307261313466
143.53073719472437
143.53074869309049
143.53076064614424
143.53077307493251
143.53078600181541
143.53079945015898
143.53081344451829
143.53082801131598
143.53084317892993
143.53085897689365
143.53087543568779
143.53089258798312
143.53091046966881
143.53092911893455
143.53094857483615
143.53096887804105
143.5309900733551
143.53101221066129
143.53103534263562
143.53105952227693
143.53108480429049
143.53111124932343
143.53113892579157
143.5311679072322
143.53119826920934
143.53123009025521
143.53126345595032
143.53129846110755
143.53133520747437
143.53137380061037
143.53141435127006
143.53145698098271
143.5315018254984
143.53154903147575
143.53159875031014
143.53165113767591
143.5317063610635
143.53176460807887
143.53182608720093
143.53189102112842
143.53195964224798
143.53203219924265
143.53210897414766
143.53219030668424
143.53227663399886
143.53236856643989
143.532467018891
143.53257339172788
143.53268974528282
143.53281884326415
143.53296390348032
143.53312798220014
143.53331309916717
143.53351932647536
143.53374403800976
143.53398140422797
143.53422226053456
143.53445455305177
143.53466417337989
143.53483657949138
143.53496051597858
143.53503297919235
143.53505522177846
143.53503202622875
143.53496992720102
143.534876073639
143.53475774011716
143.53462228248173
143.5344773919216
143.53433168659103
143.53419505363016
143.53407615607628
143.53397233921879
143.53388581373275
143.53383206497838
143.53381575638321
143.53383231408804
143.53387453647807
143.53393307836916
143.53399746729136
143.53405794093067
143.53410738588508
143.53414245630475
143.53416352413464
143.53417367176061
143.53417728832815
143.53417874281283
143.53418147907851
143.53418765403677
143.53419824937222
143.53421337844046
143.53423253746368
143.5342548966517
143.53427950879356
143.53430521662494
143.5343306441481
143.53435430515574
143.5343747427282
143.53439064800017
143.53440095922886
143.53440492327624
143.53440202358007
143.53439194203938
143.53437451356274
143.53434971618682
143.5343176687721
143.53427860150427
143.53423280736843
143.53418059884493
143.53412229003951
143.53405819408405
143.53398861996817
143.53391386429269
143.53383420893582
143.53374994364231
143.53366140694061
143.53356902218374
143.53347331719124
143.53337493659862
143.53327465840178
143.53317340904394
143.53307226842816
143.53297246282864
143.53287535762212
143.53278246417861
143.5326954602433
143.53261622556411
143.53254691576566
143.53249007290771
143.53244876429818
143.53242680065776
143.53242900667004
143.53246132384757
143.53253088041598
143.53264741830651
143.5328277780323
143.53310050480792
143.53350256530823
143.5340608140946
143.53482257820158
143.53584201595532
143.53717290753809
143.5388553012838
143.54089250945353
143.543219257262
143.54567073366783
143.54797765236046
143.54982184846685
143.55097086826785
143.5514863154045
143.551989625879
143.52483603290929
143.52906738307328
143.53009934990376
143.53034749801859
143.53041288642919
143.53043582008368
143.53044825747941
143.53045766361589
143.53046582583033
143.53047321626912
143.53048000805597
143.53048630633972
143.530492197033
143.53049775574215
143.5305030491887
143.53050813556371
143.53051306545854
143.53051788276596
143.53052262534322
143.53052732619093
143.53053201419726
143.53053671446276
143.53054144925628
143.53054623856107
143.53055110036041
143.53055605129029
143.53056110656527
143.53056627989437
143.53057158708333
143.53057704428207
143.53058266359625
143.530588456022
143.53059443280102
143.53060060523475
143.53060698455025
143.53061358202135
143.53062040906005
143.53062747718701
143.53063479810706
143.53064238388293
143.5306502469958
143.53065840027583
143.53066685690416
143.5306756305753
143.53068473565307
143.53069418716021
143.5307040006864
143.530714192435
143.53072477941777
143.5307357795464
143.53074721151526
143.53075909479622
143.53077145001947
143.53078429931179
143.53079766602869
143.530811574327
143.53082604953349
143.53084111904303
143.53085681235044
143.53087316011559
143.53089019402117
143.53090794813454
143.53092645983338
143.53094576874361
143.53096591534171
143.53098694182668
143.53100889476303
143.53103182611531
143.53105579102458
143.53108084534665
143.53110704682524
143.53113445883668
143.53116315197977
143.53119320182708
143.53122468641016
143.53125768736891
143.53129229375264
143.53132860373762
143.53136672204937
143.53140675660455
143.53144881973304
143.53149303403401
143.53153953624013
143.5315884742873
143.53164000126625
143.53169427343673
143.53175145460759
143.5318117220171
143.53187526742411
143.53194229380131
143.53201301492837
143.53208766849235
143.53216655623794
143.5322501291472
143.53233914318093
143.53243490868149
143.53253961249237
143.53265658911806
143.53279030890724
143.53294586177202
143.53312789771954
143.53333923146843
143.53357944370364
143.53384373758828
143.53412226353538
143.53440025167757
143.53465932608512
143.53488042539257
143.53504819031039
143.53515643767059
143.53520721906028
143.5352067067231
143.53516299492591
143.53508444259739
143.5349788786377
143.53485350144882
143.53471521644889
143.53457121062237
143.53442910853371
143.53429394291121
143.53416462788695
143.53405144505112
143.53396688555273
143.53391114010884
143.53388392145999
143.53388149448688
143.53389717551863
143.53392242276399
143.5339483950101
143.53396761814466
143.53397534579921
143.5339701834483
143.53395384582763
143.53393023969548
143.53390426064115
143.53388067863074
143.53386334039141
143.53385476520731
143.53385617056807
143.53386775188
143.53388873629714
143.53391761100065
143.53395268877691
143.53399201232222
143.5340332461642
143.53407392382471
143.53411176290169
143.53414492080552
143.5341719596619
143.53419182309969
143.53420366823303
143.53420689001936
143.53420102813556
143.53418577712719
143.53416099095784
143.53412667709941
143.53408297357714
143.53403011592084
143.53396841112405
143.5338982287806
143.53382000426009
143.53373424158744
143.53364151133556
143.5335424536128
143.53343779253987
143.53332835433866
143.53321507392894
143.5330989888877
143.53298122819822
143.53286300128349
143.53274558620623
143.53263031123529
143.53251853421531
143.53241163753401
143.53231103735041
143.53221819347374
143.53213466676598
143.53206224217206
143.53200302187895
143.53195953263923
143.53193488383295
143.53193272506465
143.53195736385985
143.53201656189805
143.53212698540031
143.5323098305557
143.53258288366129
143.53297485899435
143.53353095665739
143.53430611473655
143.5353616846582
143.53675565853925
143.53852357118919
143.54065036167282
143.54303956275126
143.5454966468981
143.54775099350206
143.54953495756695
143.55071495192018
143.55144652618438
143.52333106069315
143.52865265806412
143.53000541650681
143.53033672338017
143.53042096964714
143.53044645455572
143.53045769231505
143.53046533993592
143.5304719262565
143.53047803963639
143.53048382258251
143.53048932569024
143.53049458588433
143.53049963998478
143.53050452547495
143.53050927867412
143.53051393347593
143.5305185211333
143.53052306993996
143.53052760547186
143.53053215076392
143.5305367263864
143.53054135119052
143.53054604242701
143.53055081574027
143.53055568584125
143.5305606664995
143.5305657703895
143.53057101086219
143.53057640395318
143.5305819627192
143.53058769725646
143.53059361810912
143.53059973603931
143.53060606179162
143.53061260620967
143.53061938034097
143.53062639537359
143.53063366264041
143.53064119376532
143.53064900075981
143.53065709601236
143.53066549229854
143.5306742029212
143.53068324189084
143.53069262397682
143.53070236461375
143.53071247983411
143.5307229863665
143.53073390184562
143.5307452448435
143.53075703468951
143.53076929151706
143.53078203673718
143.53079529330967
143.53080908527073
143.53082343730316
143.53083837541536
143.53085392798411
143.53087012551779
143.53088699950348
143.5309045824232
143.53092290932923
143.53094201881208
143.53096195190989
143.53098275058309
143.53100445837117
143.531027123011
143.53105079769486
143.53107553918102
143.53110140559858
143.5311284573109
143.53115675973768
143.53118638451906
143.53121740783695
143.53124990845936
143.53128396868914
143.53131967776116
143.53135713368002
143.53139644102777
143.53143770749662
143.53148104399656
143.53152656879908
143.53157441089681
143.5316247084418
143.53167760321901
143.53173323566716
143.53179174402965
143.53185326691289
143.53191794499776
143.53198592188511
143.53205735759113
143.5321324823858
143.53221172737634
143.53229597024514
143.53238692109252
143.53248760256906
143.53260272415076
143.53273861621548
143.53290242620574
143.53310052200052
143.5333363970058
143.53360857932
143.53390904552768
143.53422271167386
143.5345285647395
143.53480276054668
143.53502400588212
143.53518042642784
143.5352713709874
143.53530338054762
143.53528622240478
143.53523004657418
143.53514396238478
143.53503562072035
143.53491148497514
143.53477751659759
143.5346390575049
143.53449901639988
143.53435999898898
143.53423206789091
143.53412175986642
143.53403149391079
143.53396204319361
143.53391188620623
143.53387714046647
143.53385209918721
143.53383020068671
143.53380529027939
143.5337728503205
143.53373086338306
143.53368007812225
143.53362363650663
143.53356623743954
143.53351310964075
143.53346907491377
143.53343788164946
143.53342183978094
143.53342180203236
143.53343755250083
143.53346757538804
143.53350866665923
143.53355798175835
143.53361345163242
143.53367229411646
143.53373129211835
143.53378759499967
143.53383902031854
143.53388323596903
143.53391866642329
143.53394438764502
143.53395978498102
143.53396422632935
143.53395721440722
143.53393842188643
143.53390770966377
143.53386512343172
143.53381088179964
143.53374535317315
143.53366903655314
143.5335825557016
143.5334866615454
143.53338223344011
143.53327027298494
143.5331518941484
143.53302831284134
143.53290083323927
143.53277082708735
143.53263970644599
143.53250889308362
143.5323797884738
143.53225374472828
143.53213203598068
143.5320158534872
143.53190632969915
143.53180451425087
143.53171138572074
143.53162807173683
143.53155595309298
143.53149657591973
143.53145160892072
143.53142297232236
143.53141325256911
143.53142889654262
143.53148277842041
143.53158391481978
143.53173967901085
143.53197928269253
143.53234270418011
143.53288248270317
143.53366387836064
143.5347592831144
143.53623358210331
143.53811986962393
143.54038857413295
143.54291977418424
143.54549469055522
143.54781753322729
143.54955938642129
143.55055317017039
143.52175590911696
143.52819012378833
143.52988822930345
143.53031547242708
143.53042427414908
143.53045482151799
143.53046604099728
143.53047252851795
143.53047785611855
143.53048286092434
143.53048772019037
143.53049246517094
143.53049710407473
143.5305016470617
143.53050610920772
143.53051050900405
143.53051486643244
143.53051920173598
143.53052353437079
143.53052788291552
143.53053226491903
143.53053669654841
143.53054119311597
143.53054576899461
143.53055043750592
143.53055521152092
143.53056010333623
143.53056512434617
143.53057028641584
143.53057560405446
143.53058109030533
143.53058675460102
143.53059260694167
143.5305986575226
143.53060491658866
143.53061139455806
143.53061810209417
143.53062505000642
143.53063224920666
143.5306397108416
143.53064744641748
143.53065546785473
143.53066378754843
143.53067241845326
143.53068137418634
143.53069066911053
143.53070031834483
143.53071033769325
143.53072074357755
143.53073155317665
143.53074278465056
143.53075445708976
143.5307665902582
143.53077920471614
143.53079232242226
143.53080596691242
143.53082016266504
143.5308349348191
143.53085031009368
143.53086631770367
143.5308829887995
143.530900355266
143.53091844995109
143.53093730847232
143.53095697032154
143.53097747770457
143.53099887376882
143.5310212030731
143.53104451411426
143.53106886060814
143.53109429994262
143.53112089116777
143.53114869531896
143.53117777772556
143.53120820936292
143.53124006545644
143.5312734233008
143.53130836258077
143.53134496851735
143.53138333435516
143.53142355972318
143.53146574635741
143.53150999608275
143.53155641271573
143.53160510455143
143.53165618254607
143.53170975264325
143.53176590690848
143.53182471866316
143.53188624117072
143.53195050984365
143.53201756041722
143.53208749652131
143.53216065872286
143.53223795336243
143.53232137650019
143.53241466548857
143.53252381776656
143.53265704131587
143.5328237030574
143.53303213286421
143.5332866496704
143.53358459473691
143.53391436721839
143.53425550091907
143.53458150821336
143.53486520574825
143.53508542548218
143.53523381858525
143.53531444673627
143.53533658296297
143.53531181846651
143.53525146853426
143.53516472645936
143.53505868525036
143.53493883768101
143.53480986729826
143.53467445396385
143.5345373352288
143.53440475454326
143.53427924230871
143.53416372098377
143.53405970339455
143.53396720228838
143.53388458266758
143.53380868703906
143.53373542827859
143.53366066741012
143.53358117821099
143.53349546262129
143.5334041997956
143.53331021988561
143.53321801825723
143.53313296174608
143.53306038979906
143.53300481687549
143.53296936985782
143.53295541740633
143.53296225303305
143.53298761063641
143.53302875763794
143.53308066450742
143.5331408706308
143.53321025198974
143.53328602075899
143.53336301497626
143.53343730273721
143.53350480338722
143.5335618959794
143.53360888952415
143.53364552670263
143.53367097153392
143.53368408960651
143.53368413983125
143.53367060703161
143.53364323447596
143.5336020066037
143.53354714937268
143.53347911426133
143.53339855812393
143.53330632343992
143.53320342378322
143.53309103473646
143.5329704799432
143.53284320646057
143.53271075186331
143.53257470980631
143.53243669469205
143.53229830328598
143.53216107232493
143.53202643651775
143.53189569266388
143.53176996527185
143.53165020397543
143.53153727383733
143.53143192429189
143.53133461956347
143.53124596718729
143.53116699268372
143.5310986135627
143.53104103132745
143.53099498569588
143.53096296053985
143.53095072223596
143.53096234597226
143.53099497875016
143.53105733430141
143.53117279764098
143.5313740448008
143.53170756490229
143.53223745798516
143.53304442833783
143.53421572391599
143.53582524386266
143.53790405478148
143.54040501927952
143.54316669167301
143.54588343163977
143.54809963221143
143.54944060374439
143.52012338862235
143.52768632451648
143.52975078005176
143.53028480683975
143.53042303367684
143.53046081237508
143.53047305225886
143.53047893098912
143.53048331865986
143.53048740753457
143.53049146039243
143.53049551724868
143.53049957429246
143.53050362574484
143.53050767154951
143.53051171694898
143.53051577079606
143.53051984425559
143.53052394937797
143.53052809864897
143.53053230461742
143.53053657933435
143.53054093481794
143.53054538276319
143.53054993427244
143.53055460035776
143.53055939171907
143.53056431852991
143.53056939168917
143.53057462415785
143.53058002743978
143.53058561063395
143.53059138317985
143.53059735476197
143.53060353514803
143.53060993429807
143.5306165624103
143.53062342983193
143.53063054703796
143.53063792475518
143.53064557405747
143.53065350641063
143.53066173377275
143.53067026870798
143.53067912443612
143.5306883148576
143.53069785460835
143.53070775909293
143.53071804436857
143.53072872708651
143.53073982469292
143.53075135567946
143.53076333946188
143.53077579605159
143.53078874627843
143.53080221247978
143.53081621856646
143.53083078929893
143.53084595012245
143.5308617281739
143.53087815305292
143.53089525612495
143.53091306938387
143.53093162583687
143.53095096138847
143.53097111590588
143.53099213199962
143.53101405325376
143.53103692465811
143.53106079489206
143.53108571733409
143.53111174845321
143.53113894582961
143.53116736846144
143.53119707904932
143.53122814537255
143.53126063883056
143.53129463174545
143.53133019709301
143.53136741149402
143.53140635740013
143.53144712087882
143.53148978658118
143.53153443408812
143.53158113719965
143.5316299628451
143.53168096534705
143.53173417582335
143.53178958973587
143.53184715625292
143.53190677510014
143.53196831603245
143.5320316953611
143.53209707053233
143.53216523477226
143.53223826455641
143.53232034862427
143.53241850766844
143.53254266829902
143.53270447499037
143.53291454215073
143.53317852680772
143.53349316426483
143.53384392794578
143.53420586157628
143.53454827535535
143.53484214326028
143.53506729887104
143.53521671954962
143.53529674240184
143.53531916208803
143.53529562891256
143.53523741991529
143.53515379203137
143.53505183747629
143.53493668680429
143.53481242289573
143.53468422145727
143.53455387123583
143.53442252196783
143.53429237120469
143.53416497550336
143.53404095979386
143.53391992696862
143.53380056542287
143.53368093992148
143.53355900955859
143.53343329553948
143.53330354412228
143.5331711984266
143.53303952617873
143.53291334365423
143.53279839647851
143.53270054815695
143.53262494747784
143.53257526920351
143.53255302241206
143.53255713177171
143.53258430537571
143.53262932868481
143.53269173281632
143.53276863962924
143.53285095239551
143.53293078478242
143.53300497919548
143.53307399158669
143.53313801854421
143.5331974484024
143.533252814533
143.53330076351108
143.5333384830856
143.53336558922237
143.5333818362632