/*--------------------------------*- C++ -*----------------------------------*\
  =========                 |
  \\      /  F ield         | OpenFOAM: The Open Source CFD Toolbox
   \\    /   O peration     | Website:  https://openfoam.org
    \\  /    A nd           | Version:  12
     \\/     M anipulation  |
\*---------------------------------------------------------------------------*/
FoamFile
{
    format      ascii;
    class       volScalarField;
    location    "10";
    object      p_rgh;
}
// * * * * * * * * * * * * * * * * * * * * * * * * * * * * * * * * * * * * * //

dimensions      [1 -1 -2 0 0 0 0];

internalField   nonuniform List<scalar> 
40000
(
143.510670115
143.51131891
143.51159456
143.511726965
143.511794077
143.511832766
143.511858027
143.511876158
143.511890057
143.511901252
143.511910622
143.511918712
143.51192588
143.51193237
143.511938359
143.511943974
143.511949315
143.511954457
143.511959461
143.511964376
143.511969242
143.511974094
143.511978961
143.511983867
143.511988834
143.511993885
143.511999038
143.512004304
143.512009701
143.51201524
143.512020932
143.512026792
143.512032834
143.512039068
143.51204551
143.512052169
143.51205906
143.512066193
143.512073583
143.51208124
143.512089179
143.512097412
143.512105953
143.512114817
143.512124017
143.512133568
143.512143487
143.51215379
143.512164493
143.512175616
143.512187176
143.512199195
143.512211694
143.512224695
143.512238224
143.512252305
143.512266966
143.512282235
143.512298143
143.512314722
143.512332004
143.512350026
143.512368824
143.512388438
143.512408911
143.512430288
143.512452618
143.512475953
143.512500347
143.512525861
143.512552559
143.512580508
143.512609782
143.512640458
143.512672619
143.512706354
143.51274176
143.512778938
143.512818
143.512859063
143.512902254
143.512947712
143.512995581
143.51304602
143.513099198
143.513155298
143.51321452
143.513277079
143.513343208
143.513413161
143.513487216
143.513565683
143.513648907
143.513737268
143.513831191
143.513931135
143.514037589
143.514151034
143.514271883
143.514400386
143.514536488
143.514679652
143.514828679
143.514981544
143.515135351
143.515286438
143.515430743
143.515564531
143.515684586
143.515781962
143.51584959
143.515885649
143.515889229
143.515861205
143.515804302
143.515722871
143.515622633
143.515510446
143.515394033
143.515281608
143.515181318
143.515100523
143.515045101
143.515018414
143.51501552
143.515040648
143.515088663
143.515153221
143.51522628
143.515301079
143.515372692
143.515438416
143.515498035
143.515553231
143.515606457
143.515659781
143.515714123
143.515769099
143.515823394
143.515875314
143.515923229
143.515965791
143.516001979
143.516031086
143.516052677
143.516066556
143.516072712
143.516071267
143.516062443
143.516046524
143.516023827
143.515994772
143.515959994
143.515920024
143.515875508
143.515827159
143.515775689
143.515721765
143.515665981
143.515608827
143.515550669
143.515491735
143.515432121
143.515371819
143.515310761
143.515248867
143.515186096
143.515122494
143.515058256
143.514993782
143.514929732
143.514867062
143.514807063
143.514751411
143.514702216
143.514662113
143.514634383
143.514623145
143.514633613
143.514672456
143.514748254
143.514872089
143.515058353
143.515325947
143.515700033
143.516214478
143.516914401
143.517852844
143.519065805
143.520603243
143.522508422
143.524791474
143.527400272
143.530177726
143.532811955
143.534832463
143.535777046
143.535575214
143.534781217
143.53450872
143.510062055
143.511324655
143.511640117
143.511751701
143.511805836
143.511838116
143.511860282
143.511876888
143.511890053
143.511900911
143.511910143
143.511918193
143.511925369
143.511931889
143.511937915
143.51194357
143.511948949
143.511954126
143.511959162
143.511964106
143.511968998
143.511973872
143.511978758
143.511983681
143.511988664
143.511993725
143.511998883
143.512004166
143.512009577
143.512015126
143.512020827
143.512026696
143.512032744
143.512038985
143.512045432
143.512052097
143.512058992
143.51206613
143.512073522
143.512081183
143.512089124
143.512097359
143.512105902
143.512114767
143.512123968
143.51213352
143.512143439
143.512153742
143.512164445
143.512175567
143.512187127
143.512199144
143.512211641
143.512224641
143.512238167
143.512252246
143.512266904
143.51228217
143.512298075
143.512314649
143.512331927
143.512349943
143.512368735
143.512388343
143.512408809
143.512430178
143.512452498
143.512475823
143.512500208
143.512525711
143.512552397
143.512580334
143.512609594
143.512640257
143.512672403
143.512706123
143.512741512
143.512778674
143.512817717
143.512858761
143.512901933
143.51294737
143.51299522
143.513045641
143.513098801
143.513154883
143.513214086
143.513276627
143.51334274
143.513412681
143.513486731
143.513565201
143.513648442
143.51373685
143.513830877
143.513931038
143.514037919
143.514152157
143.514274395
143.514405168
143.514544748
143.514692926
143.514848812
143.515010642
143.515175627
143.515339894
143.515498837
143.515647749
143.515780034
143.515889097
143.515968201
143.51601254
143.516020275
143.515992468
143.515932524
143.515845611
143.515738201
143.515617746
143.51549238
143.515370546
143.515260514
143.515169737
143.515104188
143.515068374
143.515067246
143.515093524
143.515145612
143.515216731
143.515299114
143.515384414
143.515465342
143.515537096
143.515598154
143.515650216
143.515696927
143.515742006
143.515787624
143.515833868
143.515879317
143.515922043
143.515960406
143.515993376
143.516020486
143.516041596
143.51605668
143.516065703
143.516068576
143.516065165
143.516055339
143.516039071
143.516016555
143.515988147
143.515954057
143.515914734
143.515870771
143.515822826
143.515771559
143.515717585
143.515661443
143.515603572
143.515544297
143.515483823
143.515422236
143.515359523
143.515295616
143.515230443
143.515163982
143.515096315
143.515027676
143.514958505
143.514889496
143.514821632
143.514756221
143.51469492
143.514639785
143.514593338
143.514558688
143.514539687
143.514541163
143.514569236
143.514631724
143.514738608
143.514902623
143.51514031
143.515474096
143.515934516
143.516558154
143.517386109
143.51848808
143.519909318
143.521684373
143.523823193
143.526280804
143.528916919
143.531454929
143.533483718
143.534592998
143.534694502
143.534299789
143.534072139
143.508984541
143.511144462
143.511641495
143.511772132
143.511821195
143.511847805
143.511866239
143.511880601
143.511892416
143.511902441
143.511911144
143.511918848
143.51192579
143.511932149
143.511938061
143.511943634
143.511948952
143.511954084
143.511959085
143.511964001
143.51196887
143.511973726
143.511978596
143.511983506
143.511988475
143.511993525
143.511998672
143.512003934
143.512009331
143.512014872
143.512020566
143.512026427
143.512032468
143.512038703
143.512045142
143.512051799
143.512058686
143.512065814
143.512073197
143.512080847
143.512088777
143.512097
143.51210553
143.512114381
143.512123568
143.512133105
143.512143008
143.512153293
143.512163978
143.51217508
143.512186619
143.512198614
143.512211088
143.512224063
143.512237563
143.512251614
143.512266242
143.512281476
143.512297346
143.512313884
143.512331121
143.512349094
143.51236784
143.512387397
143.51240781
143.512429121
143.512451381
143.512474639
143.512498953
143.512524381
143.512550986
143.512578835
143.512608001
143.512638562
143.512670599
143.512704201
143.512739464
143.512776488
143.512815384
143.512856269
143.512899267
143.512944514
143.512992157
143.513042353
143.51309527
143.513151087
143.513209998
143.513272215
143.513337969
143.513407513
143.513481121
143.5135591
143.5136418
143.513729631
143.513823095
143.513922833
143.514029688
143.51414477
143.51426947
143.514405369
143.514553971
143.514716252
143.514892119
143.515079915
143.515276079
143.515475084
143.515669813
143.515851831
143.516010794
143.516136436
143.516221763
143.516263095
143.516261196
143.516219816
143.516144499
143.516041818
143.51591899
143.515783727
143.515644226
143.515509383
143.515389306
143.515294116
143.515226947
143.515184174
143.515170349
143.51519004
143.515239205
143.515309858
143.515391651
143.515474124
143.515549042
143.5156118
143.515661569
143.515700409
143.51573191
143.515759674
143.51578625
143.515812807
143.515839411
143.515865547
143.515890557
143.515913892
143.515935127
143.515953824
143.515969442
143.515981331
143.5159888
143.515991187
143.515987936
143.515978658
143.515963189
143.515941559
143.515913888
143.515880418
143.515841507
143.515797596
143.515749163
143.515696671
143.51564053
143.515581068
143.515518528
143.51545308
143.515384836
143.515313866
143.515240225
143.515163999
143.515085357
143.515004593
143.514922162
143.514838708
143.51475509
143.514672398
143.514591971
143.514515412
143.514444623
143.514381854
143.514329806
143.514291765
143.514271799
143.51427504
143.514308036
143.514379067
143.514498453
143.514679505
143.514941518
143.515314077
143.515834777
143.516552169
143.517506809
143.51875171
143.520331791
143.522269395
143.524538564
143.527029472
143.529514649
143.531651771
143.533080622
143.533640771
143.533582921
143.533688073
143.507690358
143.510862837
143.511606412
143.511784163
143.511837241
143.511860476
143.511875361
143.511887081
143.511897056
143.511905808
143.511913617
143.511920683
143.511927159
143.511933171
143.51193882
143.51194419
143.511949348
143.511954351
143.511959248
143.511964078
143.511968874
143.511973668
143.511978484
143.511983345
143.511988272
143.511993282
143.511998393
143.512003619
143.51200898
143.512014488
143.512020154
143.51202599
143.512032008
143.512038219
143.512044636
143.51205127
143.512058133
143.512065238
143.512072596
143.51208022
143.512088123
143.512096318
143.512104818
143.512113639
143.512122793
143.512132296
143.512142164
143.512152412
143.512163058
143.512174119
143.512185615
143.512197565
143.512209992
143.512222916
143.512236363
143.512250358
143.512264925
143.512280095
143.512295896
143.512312358
143.512329515
143.512347402
143.512366055
143.512385513
143.512405819
143.512427017
143.512449155
143.512472284
143.512496458
143.512521735
143.512548178
143.512575853
143.512604831
143.512635187
143.512667004
143.512700368
143.512735372
143.512772116
143.512810706
143.512851258
143.512893895
143.512938745
143.51298595
143.513035662
143.513088045
143.513143273
143.513201532
143.51326302
143.513327954
143.513396568
143.51346912
143.513545894
143.513627231
143.513713561
143.513805493
143.513903941
143.514010306
143.514126655
143.514255752
143.514400818
143.514564906
143.514750028
143.514956256
143.515180968
143.515418342
143.51565921
143.515891506
143.516101113
143.516273494
143.516397408
143.516469858
143.516492092
143.516468887
143.516406777
143.516312917
143.516194584
143.516059131
143.515914245
143.515768545
143.515631922
143.515513036
143.515409226
143.5153227
143.51526895
143.515252648
143.515269212
143.515311426
143.515369945
143.515434317
143.515494797
143.515544266
143.515579354
143.515600421
143.515610558
143.515614173
143.515615639
143.515618387
143.515624568
143.515635167
143.515650305
143.515669473
143.515691832
143.515716436
143.515742143
143.515767585
143.515791271
143.51581173
143.515827649
143.515837968
143.515841932
143.515839023
143.515828924
143.515811484
143.515786692
143.515754658
143.515715595
143.515669782
143.515617546
143.515559219
143.515495123
143.515425548
143.515350773
143.515271078
143.515186771
143.5150982
143.515005785
143.514910043
143.514811618
143.514711296
143.514610011
143.514508843
143.514409014
143.514311892
143.514218995
143.514132006
143.5140528
143.513983523
143.513926714
143.513885444
143.513863529
143.513865792
143.513898161
143.513967756
143.514084327
143.514264728
143.514537508
143.514939622
143.51549791
143.516259705
143.517279174
143.518610091
143.52029249
143.522329681
143.524656403
143.527107852
143.529414733
143.531258881
143.532407864
143.53292329
143.533426594
143.506273017
143.510504387
143.51153635
143.511784492
143.511849879
143.511872813
143.51188525
143.511894655
143.511902815
143.511910203
143.511916993
143.51192329
143.511929179
143.511934736
143.511940028
143.511945113
143.51195004
143.511954855
143.511959595
143.511964292
143.511968976
143.511973671
143.511978401
143.511983185
143.511988043
143.51199299
143.511998043
143.512003216
143.512008523
143.512013982
143.512019602
143.512025396
143.512031374
143.512037547
143.512043926
143.512050522
143.512057348
143.512064413
143.512071731
143.512079314
143.512087175
143.512095326
143.512103781
143.512112554
143.512121658
143.51213111
143.512140923
143.512151114
143.512161701
143.5121727
143.512184131
143.512196013
143.512208368
143.512221217
143.512234583
143.512248492
143.512262969
143.512278041
143.512293736
143.512310086
143.512327122
143.512344879
143.512363393
143.512382703
143.512402849
143.512423877
143.512445833
143.512468766
143.512492729
143.512517779
143.512543977
143.512571387
143.512600078
143.512630124
143.512661603
143.512694601
143.512729207
143.512765516
143.512803631
143.512843661
143.512885724
143.512929945
143.512976455
143.513025396
143.513076919
143.513131186
143.513188367
143.51324864
143.513312192
143.513379222
143.513449942
143.513524594
143.513603482
143.513687057
143.513776073
143.513871837
143.513976536
143.514093504
143.514227212
143.514382757
143.514564794
143.514776136
143.515016356
143.515280654
143.515559185
143.515837182
143.516096266
143.516317363
143.51648511
143.51659333
143.516644085
143.516643554
143.516599829
143.516521264
143.516415688
143.516290306
143.516152026
143.516008028
143.515865936
143.515730785
143.515601492
143.515488329
143.515403775
143.515348022
143.515320796
143.515318371
143.515334057
143.515359298
143.515385253
143.515404464
143.515412202
143.515407068
143.515390755
143.515367157
143.515341177
143.515317596
143.515300262
143.515291685
143.515293083
143.515304658
143.515325647
143.515354534
143.515389624
143.51542896
143.51547021
143.515510909
143.515548766
143.515581932
143.515608972
143.515628837
143.515640682
143.515643897
143.515638017
143.515622746
143.51559795
143.515563635
143.515519927
143.515467053
143.515405324
143.515335123
143.515256891
143.515171122
143.515078376
143.51497929
143.514874595
143.514765121
143.5146518
143.514535672
143.514417874
143.51429962
143.514182188
143.5140669
143.51395511
143.513848207
143.513747615
143.513654796
143.513571305
143.513498919
143.513439738
143.513396291
143.513371682
143.513369554
143.513394215
143.51345344
143.513563902
143.513746796
143.514019898
143.514411916
143.514968052
143.515743242
143.516798828
143.5181928
143.5199607
143.522087477
143.524476656
143.526933703
143.529188015
143.530971961
143.53215194
143.532883508
143.504768021
143.510089644
143.511442411
143.511773717
143.511857962
143.511883445
143.511894682
143.511902328
143.511908913
143.511915024
143.511920806
143.511926307
143.511931566
143.51193662
143.511941505
143.511946257
143.511950911
143.511955497
143.511960043
143.511964575
143.511969116
143.511973686
143.511978304
143.511982989
143.511987756
143.511992622
143.511997599
143.512002702
143.512007942
143.512013337
143.512018899
143.512024636
143.51203056
143.51203668
143.512043006
143.51204955
143.512056323
143.512063335
143.512070599
143.512078126
143.512085929
143.512094021
143.512102414
143.512111122
143.51212016
143.512129541
143.512139281
143.512149396
143.512159903
143.512170819
143.512182162
143.512193952
143.51220621
143.512218957
143.512232215
143.512246009
143.512260362
143.512275302
143.512290856
143.512307054
143.512323927
143.512341509
143.512359837
143.512378947
143.51239888
143.512419678
143.512441387
143.512464056
143.512487734
143.512512477
143.512538342
143.512565392
143.512593692
143.512623314
143.512654332
143.512686827
143.512720883
143.512756592
143.512794048
143.512833353
143.512874616
143.512917951
143.512963479
143.513011328
143.513061628
143.51311452
143.513170146
143.513228651
143.513290175
143.513354858
143.51342284
143.513494278
143.513569406
143.513648653
143.513732895
143.513823844
143.513924522
143.514039635
143.514175515
143.51433931
143.514537395
143.514773272
143.515045466
143.515345949
143.515659628
143.515965488
143.516239687
143.516460931
143.516617341
143.516708263
143.516740243
143.516723058
143.51666686
143.51658076
143.516472405
143.516348263
143.516214297
143.51607585
143.515935824
143.515796822
143.515668909
143.515558624
143.515468377
143.515398928
143.515348757
143.515313995
143.515288948
143.515267054
143.515242145
143.515209701
143.515167718
143.515116954
143.515060547
143.515003175
143.514950058
143.514906022
143.514874823
143.514858774
143.514858724
143.514874463
143.514904483
143.514945588
143.514994925
143.515050419
143.515109281
143.515168297
143.515224613
143.515276043
143.515320251
143.515355672
143.515381388
143.515396784
143.515401218
143.51539419
143.515375378
143.515344651
143.515302058
143.515247808
143.515182259
143.515105915
143.515019411
143.514923505
143.51481907
143.514707095
143.514588689
143.514465069
143.514337547
143.514207504
143.514076358
143.513945533
143.513816423
143.513690374
143.513568657
143.51345247
143.513342954
143.513241163
143.51314807
143.513064796
143.512992714
143.512933368
143.512888424
143.512859804
143.512850102
143.51286577
143.512919685
143.513020857
143.513176657
143.513416296
143.513779751
143.514319552
143.515100954
143.516196356
143.517670655
143.519556943
143.521825636
143.524356815
143.526931719
143.529254552
143.530996388
143.531990163
143.503192877
143.509627106
143.51132522
143.511752465
143.511861266
143.511891812
143.511903029
143.511909515
143.51191484
143.511919843
143.511924701
143.511929444
143.511934082
143.511938625
143.511943087
143.511947488
143.511951845
143.511956179
143.51196051
143.511964856
143.511969233
143.511973658
143.511978148
143.511982716
143.511987378
143.511992146
143.511997033
143.512002052
143.512007215
143.512012534
143.512018023
143.512023691
143.512029547
143.512035601
143.512041862
143.51204834
143.512055046
143.512061992
143.512069187
143.512076644
143.512084375
143.512092392
143.512100707
143.512109335
143.512118289
143.512127582
143.512137231
143.51214725
143.512157656
143.512168467
143.5121797
143.512191374
143.51220351
143.512216127
143.512229249
143.512242896
143.512257093
143.512271866
143.512287241
143.512303247
143.512319915
143.512337278
143.51235537
143.512374228
143.512393891
143.512414399
143.512435797
143.51245813
143.512481447
143.5125058
143.512531242
143.512557833
143.512585635
143.512614716
143.512645143
143.512676993
143.512710344
143.512745278
143.512781884
143.512820251
143.512860476
143.512902659
143.512946905
143.512993321
143.513042015
143.513093093
143.51314666
143.513202808
143.513261617
143.51332314
143.513387412
143.513454468
143.51352441
143.513597576
143.513674871
143.51375829
143.513851572
143.513960715
143.514093928
143.514260577
143.514468995
143.514723506
143.51502146
143.515351253
143.515692409
143.51601843
143.516302128
143.516522339
143.516670718
143.516751325
143.516773434
143.516748639
143.516688263
143.516601503
143.516495452
143.5163756
143.516246633
143.516111234
143.515974134
143.515841569
143.515716068
143.515600558
143.515496556
143.515404067
143.515321445
143.515245532
143.515172256
143.515097491
143.515018012
143.514932313
143.514841067
143.514747109
143.514654939
143.514569915
143.514497361
143.514441786
143.514406326
143.514392359
143.514399185
143.514424536
143.514465684
143.514517603
143.514577825
143.514647224
143.514723008
143.514800012
143.514874307
143.514941813
143.514998904
143.515045894
143.515082526
143.515107965
143.51512108
143.515121124
143.515107578
143.515080187
143.515038942
143.514984068
143.514916013
143.51483543
143.514743167
143.514640245
143.514527843
143.514407276
143.514279979
143.514147489
143.51401141
143.513873368
143.513734966
143.513597735
143.513463101
143.513332356
143.513206625
143.513086865
143.512973947
143.512868621
143.512771349
143.51268273
143.512603785
143.512535429
143.512477865
143.512431834
143.512399825
143.512387606
143.512399253
143.512431911
143.512494289
143.512609776
143.512811043
143.513144575
143.513674474
143.514481452
143.515652761
143.517262291
143.519341104
143.521842072
143.524603749
143.527320479
143.52953666
143.530877623
143.50156037
143.509123311
143.511187771
143.5117218
143.511860026
143.511897803
143.51191004
143.511915917
143.511920302
143.511924388
143.511928439
143.511932494
143.51193655
143.511940602
143.511944648
143.511948694
143.511952748
143.511956822
143.511960926
143.511965072
143.511969274
143.511973542
143.511977891
143.511982331
143.511986875
143.511991535
143.511996322
143.512001246
143.512006318
143.512011552
143.512016959
143.512022545
143.512028322
143.512034297
143.512040479
143.512046879
143.512053506
143.512060371
143.512067485
143.512074858
143.512082502
143.51209043
143.512098653
143.512107184
143.512116037
143.512125225
143.512134764
143.512144668
143.512154954
143.512165638
143.512176738
143.512188273
143.51220026
143.512212721
143.512225676
143.512239145
143.512253153
143.512267724
143.512282883
143.512298657
143.512315078
143.512332175
143.512349983
143.512368537
143.512387873
143.512408032
143.512429052
143.512450978
143.512473856
143.512497734
143.512522662
143.512548696
143.512575892
143.512604311
143.512634019
143.512665081
143.512697568
143.512731553
143.512767113
143.512804327
143.512843274
143.512884037
143.512926699
143.512971341
143.513018041
143.513066865
143.513117865
143.513171073
143.513226483
143.513284048
143.513343668
143.513405213
143.513468597
143.513533976
143.513602142
143.513675168
143.513757243
143.513855389
143.513979538
143.514141334
143.514351395
143.514615375
143.514930016
143.515280793
143.515642748
143.515985178
143.51627905
143.516504193
143.516653593
143.516733592
143.516755986
143.516732426
143.516674194
143.516590551
143.516488593
143.516373445
143.516249188
143.516120998
143.515990664
143.515859331
143.51572919
143.515601797
143.515477783
143.515356758
143.515237404
143.515117777
143.514995836
143.514870114
143.51474037
143.514608047
143.514476405
143.514350251
143.514235332
143.514137508
143.514061922
143.514012241
143.513989976
143.513994064
143.514021224
143.51406624
143.514128642
143.51420555
143.51428787
143.514367715
143.514441919
143.514510938
143.514574972
143.514634415
143.514689797
143.514737756
143.514775479
143.514802583
143.514818828
143.514822796
143.514813322
143.514789693
143.514751543
143.514698879
143.514632047
143.514551713
143.514458827
143.514354586
143.51424039
143.514117803
143.513988516
143.513854299
143.513716962
143.513578291
143.513439993
143.513303644
143.513170645
143.513042192
143.512919245
143.512802496
143.512692573
143.512590194
143.512495218
143.512407441
143.512327628
143.512256114
143.512191544
143.512135517
143.51209257
143.512063512
143.5120403
143.512020479
143.512014681
143.512038731
143.512116342
143.512284967
143.512602377
143.513150515
143.514029426
143.515342707
143.517171913
143.519538193
143.522345113
143.525308039
143.527916149
143.529641879
143.499879991
143.508583146
143.51103216
143.511682464
143.511854606
143.511901532
143.511915679
143.51192142
143.511925149
143.511928504
143.511931871
143.51193532
143.511938848
143.511942442
143.511946092
143.511949795
143.511953551
143.511957363
143.511961237
143.511965179
143.511969198
143.511973303
143.511977502
143.511981806
143.511986225
143.511990767
143.511995444
143.512000264
143.512005238
143.512010377
143.51201569
143.512021185
143.512026871
143.512032755
143.512038848
143.512045157
143.512051693
143.512058465
143.512065484
143.51207276
143.512080304
143.512088128
143.512096244
143.512104663
143.5121134
143.512122466
143.512131877
143.512141648
143.512151793
143.51216233
143.512173274
143.512184645
143.512196459
143.512208736
143.512221494
143.512234756
143.512248542
143.512262875
143.512277781
143.512293285
143.512309416
143.512326203
143.512343679
143.512361876
143.51238083
143.512400577
143.512421155
143.512442604
143.512464966
143.512488285
143.51251261
143.512537987
143.51256447
143.512592112
143.512620971
143.512651104
143.512682573
143.512715438
143.512749762
143.512785611
143.512823047
143.51286213
143.512902917
143.512945458
143.512989792
143.51303594
143.513083896
143.513133615
143.513185002
143.513237887
143.513292021
143.513347083
143.513402754
143.513458923
143.51351612
143.513576247
143.513643578
143.513725719
143.513833934
143.513982011
143.514183169
143.514445262
143.514765782
143.515128931
143.515506925
143.515866063
143.516175552
143.516415082
143.516577806
143.516668668
143.516700256
143.516685299
143.516634595
143.51655779
143.516462686
143.516355339
143.51623884
143.51611418
143.515983214
143.515847214
143.515707147
143.515563565
143.515416542
143.515265737
143.515110602
143.51495072
143.514786268
143.514618495
143.514450101
143.514285399
143.514130143
143.513991036
143.513874956
143.513788056
143.513734848
143.513717366
143.513734645
143.513782485
143.513857718
143.513950661
143.514043892
143.514130851
143.514210373
143.514279845
143.514338185
143.514386005
143.514424419
143.51445506
143.514480188
143.514501746
143.514520422
143.514533367
143.514536962
143.514532065
143.514517387
143.514491726
143.514454004
143.514403586
143.514340241
143.514264186
143.514176066
143.514076886
143.513967958
143.513850835
143.513727242
143.51359901
143.513468009
143.513336075
143.513204939
143.513076163
143.512951096
143.512830838
143.512716241
143.512607722
143.512505501
143.512411022
143.512322895
143.512240119
143.512163853
143.512096221
143.512037445
143.511985974
143.511939688
143.511893746
143.51184522
143.511793885
143.51174442
143.511706099
143.511695515
143.511741533
143.511892492
143.512226221
143.51284484
143.513867459
143.515412861
143.517563041
143.520293309
143.523370728
143.526286972
143.528407546
143.498158588
143.50801023
143.510859878
143.51163492
143.511845485
143.511903216
143.511920012
143.511926009
143.511929324
143.511932111
143.511934911
143.511937836
143.511940895
143.511944072
143.511947354
143.511950732
143.5119542
143.511957757
143.511961403
143.511965141
143.511968975
143.511972912
143.511976958
143.511981121
143.511985407
143.511989826
143.511994386
143.511999095
143.512003962
143.512008996
143.512014206
143.5120196
143.512025184
143.512030968
143.512036959
143.512043167
143.5120496
143.512056267
143.512063179
143.512070345
143.512077777
143.512085484
143.512093478
143.512101771
143.512110375
143.512119304
143.51212857
143.512138189
143.512148174
143.512158542
143.512169309
143.512180492
143.512192107
143.512204173
143.512216707
143.51222973
143.512243262
143.512257325
143.512271941
143.512287137
143.512302937
143.512319371
143.512336468
143.512354259
143.512372775
143.512392052
143.512412123
143.512433025
143.512454797
143.512477479
143.512501111
143.512525738
143.512551405
143.512578158
143.512606044
143.512635114
143.512665415
143.512696998
143.512729908
143.512764194
143.512799897
143.512837056
143.512875697
143.512915835
143.512957466
143.513000559
143.513045045
143.513090801
143.513137631
143.513185244
143.513233235
143.513281084
143.513328218
143.513374208
143.513419201
143.51346469
143.513514635
143.513576663
143.513662742
143.513788366
143.513969463
143.514217065
143.51453129
143.514897499
143.51528735
143.515665428
143.515998829
143.516265166
143.516455551
143.516572542
143.516625754
143.516627874
143.516591102
143.516525441
143.516438417
143.516335194
143.516219309
143.516092887
143.51595718
143.515812843
143.515660147
143.515499132
143.515329763
143.515152141
143.514966793
143.514775017
143.514579241
143.514383336
143.514192741
143.514014343
143.513856022
143.513725881
143.513631222
143.513577356
143.513566374
143.513596956
143.513665813
143.513765684
143.513875567
143.513981393
143.514077939
143.514160885
143.514228989
143.514282128
143.514321105
143.514347343
143.51436244
143.514368025
143.514365699
143.51435703
143.514343587
143.514326626
143.514307362
143.51428345
143.514251856
143.514213251
143.514166823
143.51411175
143.514047313
143.513973196
143.513889539
143.513796834
143.51369593
143.513587984
143.513474388
143.513356696
143.513236556
143.513115631
143.512995488
143.512877541
143.512763
143.512652807
143.512547688
143.512447503
143.512351041
143.512263067
143.512180354
143.5121049
143.512037136
143.511975677
143.511920694
143.511871052
143.511824549
143.511777509
143.511726973
143.511671228
143.511610296
143.511546662
143.511488684
143.511455784
143.511487621
143.511659121
143.51206792
143.512832674
143.514093313
143.515982593
143.518549765
143.521636968
143.524782071
143.527290641
143.49640145
143.507407883
143.510673185
143.511581395
143.511833088
143.511903021
143.511923117
143.511929706
143.511932813
143.511935174
143.511937511
143.511939991
143.511942638
143.511945443
143.511948389
143.511951464
143.51195466
143.511957971
143.511961395
143.511964931
143.511968582
143.51197235
143.511976241
143.511980258
143.511984408
143.511988699
143.511993135
143.511997726
143.512002478
143.512007401
143.5120125
143.512017783
143.512023257
143.51202893
143.512034811
143.512040906
143.512047225
143.512053776
143.51206057
143.512067614
143.51207492
143.512082497
143.512090356
143.512098509
143.512106966
143.512115741
143.512124845
143.512134294
143.512144101
143.51215428
143.512164848
143.512175819
143.512187211
143.512199039
143.512211322
143.512224077
143.512237324
143.512251083
143.512265377
143.512280227
143.512295658
143.512311697
143.51232837
143.512345706
143.512363733
143.512382483
143.512401987
143.512422277
143.512443389
143.512465355
143.512488214
143.512512001
143.512536755
143.512562513
143.512589312
143.512617192
143.512646189
143.512676337
143.512707669
143.512740211
143.512773985
143.512809
143.512845254
143.512882724
143.512921361
143.51296108
143.513001745
143.513043155
143.513085019
143.513126927
143.513168326
143.513208512
143.513246669
143.513282037
143.513314314
143.513344411
143.513375615
143.513414977
143.513474366
143.513570193
143.513720749
143.513940833
143.514234992
143.514592418
143.514986882
143.515382869
143.515745354
143.516048384
143.516278851
143.51643528
143.516523995