/*--------------------------------*- C++ -*----------------------------------*\
  =========                 |
  \\      /  F ield         | OpenFOAM: The Open Source CFD Toolbox
   \\    /   O peration     | Website:  https://openfoam.org
    \\  /    A nd           | Version:  12
     \\/     M anipulation  |
\*---------------------------------------------------------------------------*/
FoamFile
{
    format      ascii;
    class       surfaceScalarField;
    location    "10";
    object      phi;
}
// * * * * * * * * * * * * * * * * * * * * * * * * * * * * * * * * * * * * * //

dimensions      [1 0 -1 0 0 0 0];

internalField   nonuniform List<scalar> 
79600
(
-9.07054905134e-06
9.07025032008e-06
-9.60744209857e-06
5.36621956504e-07
-7.90304978615e-06
-1.70465949333e-06
-6.20641248878e-06
-1.69690561177e-06
-4.91868723412e-06
-1.28799483156e-06
-4.00600825873e-06
-9.12949307283e-07
-3.36490618666e-06
-6.41372799012e-07
-2.90718550446e-06
-4.57991608389e-07
-2.57296086398e-06
-3.34495667546e-07
-2.32309469037e-06
-2.50137252954e-07
-2.13217767877e-06
-1.91188119358e-07
-1.98352804723e-06
-1.48920754805e-07
-1.86597952733e-06
-1.17819653231e-07
-1.77188597477e-06
-9.43646926604e-08
-1.69588671837e-06
-7.62704004234e-08
-1.6341355938e-06
-6.20222714387e-08
-1.58381205845e-06
-5.05946845738e-08
-1.54280589783e-06
-4.12773127069e-08
-1.50951000171e-06
-3.35670509171e-08
-1.48268102561e-06
-2.71001326076e-08
-1.46134330327e-06
-2.16088798097e-08
-1.44472140294e-06
-1.68930594801e-08
-1.43219285483e-06
-1.27997089603e-08
-1.4232555929e-06
-9.2084237872e-09
-1.41750697601e-06
-6.01977907623e-09
-1.41463478265e-06
-3.14335776097e-09
-1.41438140471e-06
-5.24543522494e-10
-1.41665247881e-06
1.99990772009e-09
-1.42118335453e-06
4.25970938339e-09
-1.42771009717e-06
6.25557337006e-09
-1.43607882039e-06
8.09755440771e-09
-1.44617817004e-06
9.82818064395e-09
-1.45790423613e-06
1.14548954477e-08
-1.47116954274e-06
1.29941358967e-08
-1.48590407451e-06
1.44633600696e-08
-1.50205326112e-06
1.58780141478e-08
-1.51957564203e-06
1.72512072459e-08
-1.53844082945e-06
1.85940131864e-08
-1.55862801565e-06
1.99160120915e-08
-1.5801249524e-06
2.12257619784e-08
-1.60292723528e-06
2.25311062438e-08
-1.62703770128e-06
2.38392901504e-08
-1.6524659328e-06
2.51570551238e-08
-1.679227935e-06
2.64908235633e-08
-1.70734591873e-06
2.78468065694e-08
-1.73684817983e-06
2.92310812575e-08
-1.76776894222e-06
3.06495834161e-08
-1.80014826607e-06
3.21081433719e-08
-1.83403203907e-06
3.36125911639e-08
-1.86947200474e-06
3.51687835698e-08
-1.9065258597e-06
3.67826737356e-08
-1.94525733788e-06
3.84602948271e-08
-1.98573631057e-06
4.02077889089e-08
-2.02803896658e-06
4.20314715801e-08
-2.07224800405e-06
4.39378521211e-08
-2.11845295494e-06
4.59337634511e-08
-2.16675061673e-06
4.80264738682e-08
-2.21724563397e-06
5.02238298598e-08
-2.27005130111e-06
5.25344772025e-08
-2.32529042728e-06
5.49679365898e-08
-2.38309631537e-06
5.75346971002e-08
-2.44361378924e-06
6.02462806684e-08
-2.50700017775e-06
6.31151952213e-08
-2.57342630516e-06
6.61549342512e-08
-2.64307735282e-06
6.93798500686e-08
-2.71615363039e-06
7.28050805862e-08
-2.79287161456e-06
7.64467850769e-08
-2.87346522381e-06
8.0322409166e-08
-2.95818728079e-06
8.44508549178e-08
-3.04731115027e-06
8.88526645786e-08
-3.14113270193e-06
9.35503463915e-08
-3.23997302236e-06
9.85691127136e-08
-3.34418166686e-06
1.03937434689e-07
-3.45413975313e-06
1.09686874333e-07
-3.57026287289e-06
1.15851905713e-07
-3.69300450766e-06
1.22470417304e-07
-3.82286033569e-06
1.29584608842e-07
-3.9603730613e-06
1.3724150222e-07
-4.10613701916e-06
1.45492732572e-07
-4.26080286743e-06
1.54394618415e-07
-4.42508378943e-06
1.64009688832e-07
-4.59976389637e-06
1.74408870905e-07
-4.78570816041e-06
1.85673022273e-07
-4.9838735532e-06
1.97894146643e-07
-5.19532242663e-06
2.1117762084e-07
-5.42123996441e-06
2.25646280512e-07
-5.66295718739e-06
2.41445958318e-07
-5.92197983646e-06
2.58751377656e-07
-6.20002386209e-06
2.77772744939e-07
-6.49906069827e-06
2.9876554022e-07
-6.82137755792e-06
3.22045535232e-07
-7.16965749162e-06
3.48008532902e-07
-7.54708063619e-06
3.77151529729e-07
-7.95743976557e-06
4.10086905632e-07
-8.40524504805e-06
4.47531375225e-07
-8.89575971968e-06
4.90236352096e-07
-9.43485485214e-06
5.38805933421e-07
-1.00284971369e-05
5.93327970579e-07
-1.06816067923e-05
6.52741363207e-07
-1.13960025327e-05
7.13919951685e-07
-1.21673056734e-05
7.70629860235e-07
-1.2981146346e-05
8.12834022424e-07
-1.38098085685e-05
8.27139962635e-07
-1.46111947e-05
7.99134041079e-07
-1.53319654559e-05
7.1757206878e-07
-1.59153701762e-05
5.79075499319e-07
-1.6311907462e-05
3.90949520444e-07
-1.6489836852e-05
1.7099596387e-07
-1.64490681175e-05
-4.91989273034e-08
-1.61715870359e-05
-2.87687586607e-07
-1.56660331019e-05
-5.17260366232e-07
-1.49463061432e-05
-7.32503723489e-07
-1.40416865097e-05
-9.17943806126e-07
-1.29946495744e-05
-1.06038750328e-06
-1.18555946228e-05
-1.15198790598e-06
-1.06779575342e-05
-1.18982209834e-06
-9.51485645772e-06
-1.17432443158e-06
-8.41700772734e-06
-1.10799694794e-06
-7.43117904585e-06
-9.94865737986e-07
-6.59851727455e-06
-8.40608158921e-07
-5.95228514529e-06
-6.53149114582e-07
-5.51492345391e-06
-4.43341435276e-07
-5.29504261073e-06
-2.25043058248e-07
-5.28361401005e-06
-1.59408190934e-08
-5.51455436284e-06
2.26717037594e-07
-5.96755766691e-06
4.48950392868e-07
-6.58693209965e-06
6.15393080041e-07
-7.30391071707e-06
7.12946916925e-07
-8.05704539296e-06
7.48917488148e-07
-8.80777152493e-06
7.46195951736e-07
-9.54173836828e-06
7.29029040748e-07
-1.02704247635e-05
7.23295819187e-07
-1.10236072345e-05
7.47342644587e-07
-1.18345515795e-05
8.04691971552e-07
-1.27247621906e-05
8.83598383121e-07
-1.36941881807e-05
9.62517054894e-07
-1.47200908438e-05
1.01878135201e-06
-1.57638557836e-05
1.03655728429e-06
-1.67815870725e-05
1.01062153796e-06
-1.77336403511e-05
9.45281677594e-07
-1.85902787933e-05
8.50472312973e-07
-1.93333837648e-05
7.37788168387e-07
-1.9955673799e-05
6.17988717868e-07
-2.04588939117e-05
4.99986909617e-07
-2.08517959962e-05
3.90672562052e-07
-2.11482656765e-05
2.95089793708e-07
-2.13657435336e-05
2.16748362534e-07
-2.15239957469e-05
1.57972463907e-07
-2.16441927906e-05
1.20195689207e-07
-2.1748284771e-05
1.04240627643e-07
-2.18587684286e-05
1.1069654089e-07
-2.19986848219e-05
1.4014209915e-07
-2.21891265335e-05
1.90652574047e-07
-2.24503996823e-05
2.61455814124e-07
-2.28021983992e-05
3.51947343378e-07
-2.32626724265e-05
4.60586085085e-07
-2.3848060697e-05
5.85462322142e-07
-2.45724706375e-05
7.24444673657e-07
-2.54476704093e-05
8.75193770717e-07
-2.64828781679e-05
1.03515966155e-06
-2.76845722972e-05
1.20160294831e-06
-2.90563612229e-05
1.37165439504e-06
-3.05989423798e-05
1.54240402688e-06
-3.23101573031e-05
1.71099711846e-06
-3.4185135713e-05
1.8747230335e-06
-3.62165201922e-05
2.03109565199e-06
-3.839476409e-05
2.17792648855e-06
-4.07084870636e-05
2.31338225004e-06
-4.31448624691e-05
2.43601668824e-06
-4.5690004042e-05
2.5447699287e-06
-4.83293191506e-05
2.63893512065e-06
-5.10477953412e-05
2.71809181171e-06
-5.38302063821e-05
2.78202553363e-06
-5.66611781898e-05
2.83058774963e-06
-5.95251313151e-05
2.86357246293e-06
-6.24060729431e-05
2.8805657487e-06
-6.52872013195e-05
2.88075820638e-06
-6.81502988445e-05
2.86273361043e-06
-7.09748712242e-05
2.82421497554e-06
-7.37369669704e-05
2.76174488309e-06
-7.64076061383e-05
2.67029471755e-06
-7.89507146402e-05
2.54277022779e-06
-8.13202852649e-05
2.36923821832e-06
-8.34561588077e-05
2.1355466531e-06
-8.52781010647e-05
1.82162051524e-06
-8.6680825894e-05
1.40240786158e-06
-8.7533928426e-05
8.52789969543e-07
-8.76303692859e-05
9.61323678769e-08
-8.67630112527e-05
-8.67662293575e-07
-8.46288214541e-05
-2.13449775842e-06
-8.09216351615e-05
-3.70749843243e-06
-7.53258919818e-05
-5.59605961567e-06
-6.75339882423e-05
-7.79222478975e-06
-5.7295514155e-05
-1.02388004549e-05
-4.45115673462e-05
-1.27842797192e-05
-2.94331621394e-05
-1.50787467098e-05
-1.31295072812e-05
-1.63040086983e-05
1.51804321109e-06
-1.46479260416e-05
6.84661666557e-06
-5.32884774201e-06
6.84632919193e-06
-7.37502487272e-06
1.64449815499e-05
-1.00873094511e-05
3.248641411e-06
-9.98981787308e-06
-1.80241619114e-06
-9.10489105654e-06
-2.58210058387e-06
-8.14804308043e-06
-2.24511265475e-06
-7.3080435119e-06
-1.75321944861e-06
-6.61294087605e-06
-1.33674631237e-06
-6.04843499488e-06
-1.02276849834e-06
-5.59089776294e-06
-7.92303972708e-07
-5.21862544731e-06
-6.22680672784e-07
-4.91394616023e-06
-4.96138529034e-07
-4.66303818574e-06
-4.0009986255e-07
-4.45523090273e-06
-3.25898076873e-07
-4.28229767994e-06
-2.67569059878e-07
-4.13787004794e-06
-2.20969180266e-07
-4.01698398978e-06
-1.83179482947e-07
-3.9157382122e-06
-1.52111617017e-07
-3.83103933273e-06
-1.2624734855e-07
-3.76041239064e-06
-1.04465150882e-07
-3.70185989975e-06
-8.59237837031e-08
-3.65375681247e-06
-6.99831286978e-08
-3.61477163785e-06
-5.614939695e-08
-3.58380655081e-06
-4.40359607849e-08
-3.55995165028e-06
-3.33344911041e-08
-3.54244964401e-06
-2.3792952865e-08
-3.53066556396e-06
-1.51986057163e-08
-3.52410212491e-06
-7.35915191335e-09
-3.52233073976e-06
-4.26483988182e-11
-3.52510291282e-06
6.76071012911e-09
-3.53211270913e-06
1.29941987806e-08
-3.54301978938e-06
1.87334607403e-08
-3.55752588259e-06
2.40630987142e-08
-3.57539383348e-06
2.90516719751e-08
-3.59643053506e-06
3.3759660047e-08
-3.62047868892e-06
3.82403378614e-08
-3.64741166793e-06
4.25398155967e-08
-3.67712919859e-06
4.66975601209e-08
-3.70955378778e-06
5.07474233252e-08
-3.74462784665e-06
5.47188906073e-08
-3.78231135389e-06
5.86380878058e-08
-3.82258000016e-06
6.25285717491e-08
-3.86542378841e-06
6.64118958189e-08
-3.91084592554e-06
7.03080086877e-08
-3.95886198237e-06
7.42356963116e-08
-4.00949924187e-06
7.8212881254e-08
-4.06279623356e-06
8.22568872967e-08
-4.11880246976e-06
8.63846317811e-08
-4.17757827736e-06
9.06127637514e-08
-4.23919479174e-06
9.49579176866e-08
-4.30373403621e-06
9.94368401647e-08
-4.37128909994e-06
1.04066545255e-07
-4.44196442929e-06
1.0886443269e-07
-4.51587616527e-06
1.13848331795e-07
-4.59315259623e-06
1.19036708453e-07
-4.67393470531e-06
1.24448765543e-07
-4.75837679213e-06
1.3010465567e-07
-4.84664728157e-06
1.36025765279e-07
-4.93892959166e-06
1.42234940672e-07
-5.03542319858e-06
1.48756884305e-07
-5.1363448909e-06
1.55618426628e-07
-5.24193009599e-06
1.62848697458e-07
-5.35243438968e-06
1.70479369558e-07
-5.46813514655e-06
1.78544744653e-07
-5.5893333549e-06
1.87081933208e-07
-5.71635575129e-06
1.96131036334e-07
-5.84955708502e-06
2.05735199914e-07
-5.98932251016e-06
2.15940996759e-07
-6.13607038007e-06
2.26799059429e-07
-6.29025548546e-06
2.383647414e-07
-6.45237282974e-06
2.50698786216e-07
-6.62296170356e-06
2.63867994906e-07
-6.80261002622e-06
2.77946205952e-07
-6.99195946474e-06
2.93015642392e-07
-7.19171172171e-06
3.09167894834e-07
-7.40263563081e-06
3.26504573667e-07
-7.62557477195e-06
3.45138316052e-07
-7.86145584798e-06
3.65194435757e-07
-8.1112985719e-06
3.86812972879e-07
-8.37622778505e-06
4.10150686278e-07
-8.65748768678e-06
4.35383255604e-07
-8.9564579831e-06
4.6270871439e-07
-9.27467288364e-06
4.92352491833e-07
-9.61384461261e-06
5.2457346541e-07
-9.97589272617e-06
5.5967096605e-07
-1.03629802067e-05
5.97993797175e-07
-1.07775580826e-05
6.39952842201e-07
-1.12224224283e-05
6.86038976458e-07
-1.17007905662e-05
7.36848169734e-07
-1.22164060557e-05
7.9311685751e-07
-1.27736848988e-05
8.55772928895e-07
-1.33779204754e-05
9.26009438595e-07
-1.40355714167e-05
1.00538714563e-06
-1.47546579771e-05
1.09596384265e-06
-1.55452725624e-05
1.2004218706e-06
-1.64201362691e-05
1.32210127458e-06
-1.73949570533e-05
1.46472822026e-06
-1.84880337959e-05
1.63147284033e-06
-1.97181716418e-05
1.82288333214e-06
-2.10998206965e-05
2.03346918261e-06
-2.26349667645e-05
2.24753788878e-06
-2.43031016668e-05
2.43625069611e-06
-2.60530219398e-05
2.55879624263e-06
-2.78013442456e-05
2.56960404106e-06
-2.9440673343e-05
2.43035808346e-06
-3.08558802199e-05
2.12227712195e-06
-3.19429960369e-05
1.65336340366e-06
-3.26248158475e-05
1.05785315122e-06
-3.28596364828e-05
3.89091079467e-07
-3.26316090034e-05
-2.95660669319e-07
-3.19797689315e-05
-9.58872219128e-07
-3.09592635807e-05
-1.55672221643e-06
-2.96574049845e-05
-2.0519730588e-06
-2.81685954016e-05
-2.42244679581e-06
-2.65804773067e-05
-2.66204299837e-06
-2.49684723054e-05
-2.7753682931e-06
-2.33957690948e-05
-2.77186657647e-06
-2.19157112288e-05
-2.66187738681e-06
-2.05743958381e-05
-2.45516413473e-06
-1.94123080377e-05
-2.16135838248e-06
-1.84648718652e-05
-1.79118698471e-06
-1.77628641827e-05
-1.3572161573e-06
-1.73353072474e-05
-8.72062787187e-07
-1.7229666168e-05
-3.31189715334e-07
-1.75384606477e-05
2.92530507803e-07
-1.82802480105e-05
9.68129782068e-07
-1.94367851822e-05
1.60480176324e-06
-2.09741514067e-05
2.15136758358e-06
-2.28481955909e-05
2.58453033556e-06
-2.50075665067e-05
2.90454640581e-06
-2.7395078362e-05
3.12871539038e-06
-2.99535634165e-05
3.28156159889e-06
-3.26223384601e-05
3.3856279837e-06
-3.53356091913e-05
3.4541687512e-06
-3.80262424823e-05
3.48924016542e-06
-4.0633190076e-05
3.48500574075e-06
-4.31077944791e-05
3.43218392577e-06
-4.54155121092e-05
3.32217391021e-06
-4.7533932866e-05
3.15127691061e-06
-4.94492418954e-05
2.92287182773e-06
-5.11536270263e-05
2.64725581942e-06
-5.26445777351e-05
2.33963178492e-06
-5.39252608699e-05
2.01723175247e-06
-5.50049422053e-05
1.6968820411e-06
-5.58990110811e-05
1.39360368237e-06
-5.66284015246e-05
1.11983353711e-06
-5.72184731256e-05
8.85057296318e-07
-5.76975827485e-05
6.95805067387e-07
-5.80956740428e-05
5.56011769741e-07
-5.84430157608e-05
4.67456673098e-07
-5.87691539385e-05
4.30254999189e-07
-5.91020314466e-05
4.43402935095e-07
-5.94672033547e-05
5.05097209577e-07
-5.98890470908e-05
6.12238382635e-07
-6.03890425899e-05
7.61157563994e-07
-6.09852427172e-05
9.47823244057e-07
-6.16926763036e-05
1.16766996189e-06
-6.25231934503e-05
1.41560872894e-06
-6.34852883937e-05
1.68615179706e-06
-6.45840313457e-05
1.97353540449e-06
-6.58211073336e-05
2.27182419734e-06
-6.71949387661e-05
2.57501608822e-06
-6.87008690095e-05
2.87716281066e-06
-7.03313936912e-05
3.17250669201e-06
-7.20764393342e-05
3.45562392064e-06
-7.3923690208e-05
3.72156153885e-06
-7.58589562321e-05
3.96595891439e-06
-7.78665640188e-05
4.18514394699e-06
-7.99297500658e-05
4.37619281023e-06
-8.20310399794e-05
4.53694783229e-06
-8.41525941559e-05
4.66598334254e-06
-8.62765017622e-05
4.76252064956e-06
-8.83850087667e-05
4.82629551617e-06
-9.04606303137e-05
4.85736210625e-06
-9.24861812073e-05
4.85587107338e-06
-9.44446763692e-05
4.82181614528e-06
-9.63190648789e-05
4.75471725438e-06
-9.80918017213e-05
4.65327068984e-06
-9.97442339379e-05
4.51495217139e-06
-0.000101255773188
4.33554930985e-06
-0.000102602792402
4.10856604076e-06
-0.000103757166212
3.82447561775e-06
-0.000104684360309
3.46977508308e-06
-0.000105340916565
3.02560769571e-06
-0.000105671264988
2.46570983519e-06
-0.000105603403725
1.75357486309e-06
-0.000105038318138
8.37138204933e-07
-0.000103844084873
-3.41627490232e-07
-0.000101940076403
-1.80807867526e-06
-9.91622283558e-05
-3.64573317351e-06
-9.53706485958e-05
-5.92631128096e-06
-9.03424307673e-05
-8.73595990128e-06
-8.38078545899e-05
-1.21308891259e-05
-7.54888404192e-05
-1.61115024175e-05
-6.5154798428e-05
-2.05731171022e-05
-5.27249379989e-05
-2.5214427837e-05
-3.84495747991e-05
-2.93544133486e-05
-2.31937013629e-05
-3.15602045964e-05
-8.90181600428e-06
-2.894015423e-05
1.63091013939e-06
-1.5861927802e-05
8.47694474974e-06
-5.95309315082e-06
2.23977842883e-05
-8.99023832587e-06
6.28552464964e-06
-9.72197876118e-06
-1.07094012082e-06
-9.53942840952e-06
-2.76491942735e-06
-9.06602696017e-06
-2.71878435249e-06
-8.53689567952e-06
-2.28262156045e-06
-8.03420062311e-06
-1.8397123864e-06
-7.58380295106e-06
-1.47343725472e-06
-7.19035514756e-06
-1.18602288976e-06
-6.85066930904e-06
-9.62637639238e-07
-6.55897733324e-06
-7.88101642866e-07
-6.30906075441e-06
-6.5028758544e-07
-6.09509629111e-06
-5.40133689299e-07
-5.9119472194e-06
-4.50989284427e-07
-5.75521294441e-06
-3.77974612245e-07
-5.62117886438e-06
-3.17484720624e-07
-5.50673138331e-06
-2.66830259546e-07
-5.40926716842e-06
-2.23982726793e-07
-5.3266090214e-06
-1.8739446338e-07
-5.25693267916e-06
-1.5587129313e-07
-5.19870537675e-06
-1.28481599311e-07
-5.1506352483e-06
-1.04490696693e-07
-5.11162986147e-06
-8.33125192484e-08
-5.08076208842e-06
-6.44734379707e-08
-5.05724154968e-06
-4.75846662014e-08
-5.04039079058e-06
-3.23205403319e-08
-5.02962621325e-06
-1.83949067118e-08
-5.02440571196e-06
-5.53432789602e-09
-5.02439393251e-06
6.47775156041e-09
-5.02932481974e-06
1.76539045802e-08
-5.03890241929e-06
2.80398795826e-08
-5.05284418308e-06
3.77336801827e-08
-5.07090021838e-06
4.68365231281e-08
-5.09285843433e-06
5.54466921573e-08
-5.11854130386e-06
6.36520208022e-08
-5.14780227179e-06
7.15295967322e-08
-5.18052245948e-06
7.91465593727e-08
-5.21660777387e-06
8.65615495715e-08
-5.25598632379e-06
9.38262511081e-08
-5.29860624555e-06
1.00986819125e-07
-5.34443387368e-06
1.08085006825e-07
-5.39345229783e-06
1.15159126633e-07
-5.44566020959e-06
1.22244726895e-07
-5.50107097457e-06
1.29375266431e-07
-5.55971194816e-06
1.36582657464e-07
-5.62162394958e-06
1.43897691927e-07
-5.68686099076e-06
1.51350475366e-07
-5.75549013407e-06
1.58970706469e-07
-5.82759148772e-06
1.66788069688e-07
-5.90325836975e-06
1.74832517994e-07
-5.98259751978e-06
1.83134492133e-07
-6.0657294999e-06
1.91725206603e-07
-6.15278915967e-06
2.00636784408e-07
-6.24392620853e-06
2.09902547481e-07
-6.33930595635e-06
2.19557302678e-07
-6.43911010917e-06
2.29637595692e-07
-6.54353774898e-06
2.40182189265e-07
-6.65280644695e-06
2.51232421138e-07
-6.76715345564e-06
2.62832674066e-07
-6.88683716939e-06
2.75030918146e-07
-7.01213873532e-06
2.87879040312e-07
-7.14336386416e-06
3.01433271808e-07
-7.28084491643e-06
3.15754568186e-07
-7.4249431802e-06
3.309089645e-07
-7.5760515517e-06
3.46968172585e-07
-7.73459766578e-06
3.64010076174e-07
-7.90104725138e-06
3.82119339458e-07
-8.07590785269e-06
4.01388415863e-07
-8.25973307069e-06
4.21918708779e-07
-8.45312742216e-06
4.43821883448e-07
-8.65675192234e-06
4.67221235713e-07
-8.87133015105e-06
4.9225317144e-07
-9.09765495337e-06
5.19069174485e-07
-9.33659638428e-06
5.47838050607e-07
-9.58911119569e-06
5.78748105089e-07
-9.85625382487e-06
6.1200965581e-07
-1.01391889925e-05
6.47858308203e-07
-1.04392062997e-05
6.86558976045e-07
-1.07577375913e-05
7.28410666207e-07
-1.10963778809e-05
7.737522232e-07
-1.14569102141e-05
8.2296971558e-07
-1.1841335276e-05
8.76506209488e-07
-1.22519076108e-05
9.34874442258e-07
-1.26911811732e-05
9.98673158637e-07
-1.31620675824e-05
1.068608819e-06
-1.36679115297e-05
1.14552538197e-06
-1.42125901719e-05
1.23044618293e-06
-1.48006477317e-05
1.32463424361e-06
-1.54374836116e-05
1.42968112285e-06
-1.61296216613e-05
1.54763898942e-06
-1.68850982001e-05
1.68121285078e-06
-1.77140090506e-05
1.83402149554e-06
-1.86292292603e-05
2.01089801858e-06
-1.96472188208e-05
2.21810002926e-06
-2.07885877551e-05
2.46309571822e-06
-2.20776706564e-05
2.75329093796e-06
-2.35398573946e-05
3.09282914932e-06
-2.51952708133e-05
3.47686169488e-06
-2.70483187171e-05
3.88401203902e-06
-2.90751230138e-05
4.2701300119e-06
-3.12138442788e-05
4.5683173752e-06
-3.33638508599e-05
4.69902276883e-06
-3.53966045343e-05
4.5890007654e-06
-3.71756323726e-05
4.19236770901e-06
-3.85790912803e-05
3.50538236933e-06
-3.9518621003e-05
2.5698907714e-06
-3.99509096451e-05
1.46542796238e-06
-3.98792976272e-05
2.92111184633e-07
-3.9346951874e-05
-8.52901497547e-07
-3.84506715578e-05
-1.87768577408e-06
-3.73086812442e-05
-2.71805652869e-06
-3.60333598504e-05
-3.34319473775e-06
-3.47149236141e-05
-3.75349435609e-06
-3.34212590046e-05
-3.96540057616e-06
-3.22034608138e-05
-4.00038018466e-06
-3.11025304814e-05
-3.87794960325e-06
-3.01551045702e-05
-3.61275084148e-06
-2.93978698974e-05
-3.21442534211e-06
-2.88712388521e-05
-2.68881818659e-06
-2.86234649589e-05
-2.03877897218e-06
-2.87181797166e-05
-1.26149944447e-06
-2.92642270828e-05
-3.24453338535e-07
-3.03592060205e-05
7.65472524871e-07
-3.19400755087e-05
1.87532396093e-06
-3.38753015286e-05
2.90523182186e-06
-3.61027878653e-05
3.83335680713e-06
-3.85891265094e-05
4.63748092374e-06
-4.13050191286e-05
5.29877266742e-06
-4.42119933312e-05
5.80865037512e-06
-4.72571181678e-05
6.17018707388e-06
-5.03747378904e-05
6.39526340951e-06
-5.34921622934e-05
6.49932539299e-06
-5.6537696385e-05
6.49647231086e-06
-5.94480089297e-05
6.3969609603e-06
-6.21723492436e-05
6.20741228851e-06
-6.46740901884e-05
5.93259920086e-06
-6.69306790494e-05
5.57796602193e-06
-6.89318763222e-05
5.15211582608e-06
-7.06772541718e-05
4.66823161016e-06
-7.21738754054e-05
4.14409476551e-06
-7.34347052385e-05
3.60080916228e-06
-7.44774771983e-05
3.06038243364e-06
-7.53236739644e-05
2.54340621404e-06
-7.59978780227e-05
2.06802325199e-06
-7.65270936601e-05
1.64911555545e-06
-7.69397513486e-05
1.29761605533e-06
-7.72645763619e-05
1.02036622498e-06
-7.75295429012e-05
8.20561348817e-07
-7.77610782731e-05
6.98440612294e-07
-7.79834845592e-05
6.51997222354e-07
-7.82185711918e-05
6.77735431225e-07
-7.84854510927e-05
7.71154666418e-07
-7.88008744427e-05
9.26791132779e-07
-7.9178987109e-05
1.13836947661e-06
-7.96310715291e-05
1.39899256413e-06
-8.01654931787e-05
1.70117589236e-06
-8.07877027008e-05
2.03691369807e-06
-8.1500246142e-05
2.39781187994e-06
-8.23028127207e-05
2.77524829253e-06
-8.31923456605e-05
3.16054023759e-06
-8.41632226964e-05
3.54511895813e-06
-8.52075010875e-05
3.92071466794e-06
-8.63152160166e-05
4.27954665418e-06
-8.74747191063e-05
4.61450662924e-06
-8.86730432522e-05
4.91932200902e-06
-8.98962810368e-05
5.18869094207e-06
-9.11299637858e-05
5.41837915556e-06
-9.23594249408e-05
5.60526401252e-06
-9.35701417456e-05
5.74733073586e-06
-9.47480304288e-05
5.84359176544e-06
-9.58796840875e-05
5.89394446264e-06
-9.6952540547e-05
5.89896858748e-06
-9.79549774963e-05
5.85965753243e-06
-9.88763133343e-05
5.77710212337e-06
-9.97067085169e-05
5.65213773112e-06
-0.000100436979164
5.4849396649e-06
-0.000101058286036
5.27454870534e-06
-0.000101561694638
5.01834532548e-06
-0.000101937629194
4.71147605e-06
-0.000102175179886
4.34611116457e-06
-0.000102261164173
3.91045180261e-06
-0.000102178885634
3.38748190094e-06
-0.000101906419002
2.7531167585e-06
-0.000101414308312
1.97356294932e-06
-0.000100662478248
1.00169528549e-06
-9.95911909633e-05
-2.34212660169e-07
-9.81917685685e-05
-1.74115636815e-06
-9.63668715748e-05
-3.63310266099e-06
-9.39808511292e-05
-6.03189831396e-06
-9.0846728914e-05
-9.06059394452e-06
-8.67424834528e-05
-1.28403804812e-05
-8.14108159661e-05
-1.74627459876e-05
-7.45771333684e-05
-2.2945388871e-05
-6.5993516087e-05
-2.91569536676e-05
-5.5523626426e-05
-3.5684554067e-05
-4.32826385765e-05
-4.15956581129e-05
-2.98221284757e-05
-4.50209962453e-05
-1.62467895768e-05
-4.25158035225e-05
-3.56341199092e-06
-2.85456402253e-05
4.9132133053e-06
-5.05773882384e-06
2.74552329147e-05
-8.00459133941e-06
9.23211462008e-06
-9.09897743713e-06
2.31800332234e-08
-9.29432953514e-06
-2.56983685992e-06
-9.14250871777e-06
-2.87087598955e-06
-8.86456755443e-06
-2.56083383029e-06
-8.5508394765e-06
-2.15371160667e-06
-8.23993627721e-06
-1.78461159549e-06
-7.94845151602e-06
-1.4777787936e-06
-7.68288515653e-06
-1.22847514301e-06
-7.44487332829e-06
-1.02638462079e-06
-7.23369630933e-06
-8.61735758416e-07
-7.04755790862e-06
-7.26543246434e-07
-6.88425382453e-06
-6.1456453036e-07
-6.74151743329e-06
-5.20982166424e-07
-6.61719068836e-06
-4.42082632313e-07
-6.50930004552e-06
-3.74992071263e-07
-6.41608147255e-06
-3.17472471549e-07
-6.3359792455e-06
-2.67767864205e-07
-6.26763226146e-06
-2.24489453158e-07
-6.2098551783e-06
-1.86529859672e-07
-6.16161820303e-06
-1.52998850427e-07
-6.12202723799e-06
-1.23174665841e-07
-6.0903051597e-06
-9.64666979142e-08
-6.06577439519e-06
-7.23866144176e-08
-6.04784065504e-06
-5.05254656241e-08
-6.03597343747e-06
-3.05333119332e-08
-6.02968110586e-06
-1.20978476572e-08
-6.02860632866e-06
5.13178509847e-09
-6.03238495115e-06
2.1161335503e-08
-6.04083625235e-06
3.62199892238e-08
-6.05374952803e-06
5.03757619962e-08
-6.0709291781e-06
6.37449789633e-08
-6.09220149983e-06
7.6447817965e-08
-6.11741570409e-06
8.85950288107e-08
-6.14644365687e-06
1.00286351091e-07
-6.17917922631e-06
1.11610929869e-07
-6.21553720807e-06
1.22648329794e-07
-6.25545205653e-06
1.33469896799e-07
-6.29887665929e-06
1.4414021876e-07
-6.34578118595e-06
1.5471832906e-07
-6.39615211347e-06
1.6525884684e-07
-6.4499914396e-06
1.75812844348e-07
-6.50731600192e-06
1.86428619226e-07
-6.56815699047e-06
1.97152434907e-07
-6.63255958167e-06
2.08029069059e-07
-6.70058274466e-06
2.19102423835e-07
-6.77229922695e-06
2.30415972354e-07
-6.84779560187e-06
2.42013226307e-07
-6.92717250947e-06
2.5393820553e-07
-7.01054497353e-06
2.66235734379e-07
-7.09804285439e-06
2.7895186257e-07
-7.18981146883e-06
2.92134172422e-07
-7.28601225209e-06
3.05832101605e-07
-7.3868236165e-06
3.20097434959e-07
-7.49244191797e-06
3.34984664151e-07
-7.60308251858e-06
3.50551553325e-07
-7.71898107944e-06
3.66859742222e-07
-7.8403949188e-06
3.83975270105e-07
-7.96760456082e-06
4.01969315123e-07
-8.10091558519e-06
4.20918814517e-07
-8.24066064521e-06
4.40907078786e-07
-8.38720186514e-06
4.62024530669e-07
-8.54093351943e-06
4.8436935754e-07
-8.70228500679e-06
5.08048393929e-07
-8.87172440527e-06
5.33178204795e-07
-9.0497624688e-06
5.59886127574e-07
-9.23695698264e-06
5.88311648343e-07
-9.43391768564e-06
6.1860812497e-07
-9.64131184138e-06
6.5094474599e-07
-9.85987067899e-06
6.85508773303e-07
-1.0090396791e-05
7.22507976281e-07
-1.03337723815e-05
7.6217344971e-07
-1.05909687395e-05
8.04763086097e-07
-1.08630574877e-05
8.50565519011e-07
-1.11512237822e-05
8.99904607742e-07
-1.14567817884e-05
9.53144960797e-07
-1.17811929633e-05
1.01069878571e-06
-1.21260878956e-05
1.07303421991e-06
-1.24932926311e-05
1.14068556737e-06
-1.28848605197e-05
1.21426619533e-06
-1.33031109244e-05
1.29448519043e-06
-1.37506770117e-05
1.38216908529e-06
-1.42305659023e-05
1.47829058408e-06
-1.47462360977e-05
1.58400752374e-06
-1.53016994057e-05
1.70071716552e-06
-1.59016583159e-05
1.83013351143e-06
-1.65516954587e-05
1.97439967021e-06
-1.72585399254e-05
2.13625349217e-06
-1.80304449426e-05
2.31927075723e-06
-1.88777169593e-05
2.52820816009e-06
-1.98134185236e-05
2.76943643757e-06
-2.08541855159e-05
3.05135155937e-06
-2.20208904328e-05
3.38442357463e-06
-2.3338496756e-05
3.78016088253e-06
-2.4833950692e-05
4.24785680954e-06
-2.65306928583e-05
4.78799339454e-06
-2.84390163861e-05
5.38236050717e-06
-3.05435957336e-05
5.98373389505e-06
-3.27924683937e-05
6.5111736791e-06
-3.50933641772e-05
6.8575059971e-06
-3.73213796541e-05
6.91082507253e-06
-3.93372162118e-05
6.58398437297e-06
-4.10108855221e-05
5.84100867714e-06
-4.22445227403e-05
4.71085054392e-06
-4.29893862102e-05
3.28492030287e-06
-4.32538539999e-05
1.70013006169e-06
-4.31004074617e-05
1.10763091424e-07
-4.26353109563e-05
-1.34233792202e-06
-4.19808995048e-05
-2.55190511752e-06
-4.12457222996e-05
-3.4685839601e-06
-4.05109316276e-05
-4.08938071804e-06
-3.98340517504e-05
-4.43850072684e-06
-3.92565596581e-05
-4.54843993038e-06
-3.88122621755e-05
-4.44823980986e-06
-3.85341670326e-05
-4.15808490308e-06
-3.84594315357e-05
-3.68834059289e-06
-3.86325837347e-05
-3.04117534521e-06
-3.91069836193e-05
-2.21353461e-06
-3.9947313426e-05
-1.19691599609e-06
-4.12269493297e-05
2.01782942783e-08
-4.28996022572e-05
1.35059747429e-06
-4.4798646149e-05
2.66727904689e-06
-4.68499494878e-05
3.92922083425e-06
-4.90763144963e-05
5.13357995521e-06
-5.14817533349e-05
6.23993289386e-06
-5.40486018884e-05
7.20457241761e-06
-5.67441665715e-05
7.99383113588e-06
-5.95246574955e-05
8.58818401017e-06
-6.23374419762e-05
8.98192407438e-06
-6.51235394662e-05
9.18054641123e-06
-6.78215551615e-05
9.19697621784e-06
-7.03728031373e-05
9.04789619636e-06
-7.27263871531e-05
8.7512485168e-06
-7.48430276466e-05
8.32520375074e-06
-7.66972378717e-05
7.78829384747e-06
-7.82778646662e-05
7.16028445347e-06
-7.95871234551e-05
6.46314662464e-06
-8.06384850096e-05
5.72132517889e-06
-8.14539057958e-05
4.9610998683e-06
-8.20613852795e-05
4.20963626669e-06
-8.24926669819e-05
3.49270948184e-06
-8.27804462146e-05
2.83188829527e-06
-8.29568624491e-05
2.2447839511e-06
-8.30528305852e-05
1.74507508123e-06
-8.3097008959e-05
1.34145484948e-06
-8.31148070345e-05
1.03752774593e-06
-8.31277748839e-05
8.32636871106e-07
-8.31534548904e-05
7.23016949257e-07
-8.32054270362e-05
7.02698916574e-07
-8.32939109515e-05
7.64824640834e-07
-8.34264271791e-05
9.0219112562e-07
-8.36083244213e-05
1.10715875895e-06
-8.38431050939e-05
1.37160163969e-06
-8.41324988472e-05
1.68684563498e-06
-8.44764950381e-05
2.04366194991e-06
-8.48733834847e-05
2.43234159458e-06
-8.5319805474e-05
2.84283860403e-06
-8.58108300345e-05
3.26495559836e-06
-8.63400694003e-05
3.6885504593e-06
-8.68998392761e-05
4.10375558117e-06
-8.74813626578e-05
4.50120639403e-06
-8.80750130356e-05
4.8722708094e-06
-8.86705894913e-05
5.20926440864e-06
-8.92576132688e-05
5.50563515973e-06
-8.98256302142e-05
5.75610429275e-06
-9.03645044733e-05
5.95675438141e-06
-9.08646945398e-05
6.10505574145e-06
-9.13174922707e-05
6.19982563801e-06
-9.17152228274e-05
6.24110858356e-06
-9.20513929409e-05
6.22998237968e-06
-9.23207822178e-05
6.16829865388e-06
-9.2519471689e-05
6.05835134423e-06
-9.26447998032e-05
5.90248797477e-06
-9.26952472642e-05
5.70268563004e-06
-9.26702778751e-05
5.46010239652e-06
-9.25700979791e-05
5.17452154523e-06
-9.23953043057e-05
4.84371418712e-06
-9.2146542663e-05
4.46287652936e-06
-9.18241873574e-05
4.02390835722e-06
-9.14277555947e-05
3.51415508687e-06
-9.09549591913e-05
2.91479692327e-06
-9.04004944321e-05
2.19873545649e-06
-8.97536526751e-05
1.32677415374e-06
-8.89930154517e-05
2.41079554465e-07
-8.81414630849e-05
-1.08577495285e-06
-8.71394926619e-05
-2.74316580797e-06
-8.58980782319e-05
-4.8745807189e-06
-8.43030871625e-05
-7.62697473684e-06
-8.22005129033e-05
-1.11632731829e-05
-7.93914768311e-05
-1.5649539661e-05
-7.56302657257e-05
-2.12240973305e-05
-7.06342358652e-05
-2.79415755797e-05