/*--------------------------------*- C++ -*----------------------------------*\
  =========                 |
  \\      /  F ield         | OpenFOAM: The Open Source CFD Toolbox
   \\    /   O peration     | Website:  https://openfoam.org
    \\  /    A nd           | Version:  12
     \\/     M anipulation  |
\*---------------------------------------------------------------------------*/
FoamFile
{
    format      ascii;
    class       surfaceScalarField;
    location    "10";
    object      phi;
}
// * * * * * * * * * * * * * * * * * * * * * * * * * * * * * * * * * * * * * //

dimensions      [1 0 -1 0 0 0 0];

internalField   nonuniform List<scalar> 
79600
(
-9.07056e-06
9.07026e-06
-9.60744e-06
5.36615e-07
-7.90305e-06
-1.70466e-06
-6.20641e-06
-1.6969e-06
-4.91869e-06
-1.28799e-06
-4.00601e-06
-9.12948e-07
-3.36491e-06
-6.41372e-07
-2.90719e-06
-4.57991e-07
-2.57296e-06
-3.34495e-07
-2.3231e-06
-2.50137e-07
-2.13218e-06
-1.91188e-07
-1.98353e-06
-1.48921e-07
-1.86598e-06
-1.1782e-07
-1.77189e-06
-9.4365e-08
-1.69589e-06
-7.62709e-08
-1.63414e-06
-6.20229e-08
-1.58381e-06
-5.05953e-08
-1.54281e-06
-4.1278e-08
-1.50951e-06
-3.35679e-08
-1.48268e-06
-2.71011e-08
-1.46134e-06
-2.16098e-08
-1.44472e-06
-1.68938e-08
-1.43219e-06
-1.28003e-08
-1.42325e-06
-9.2089e-09
-1.4175e-06
-6.02023e-09
-1.41463e-06
-3.14372e-09
-1.41438e-06
-5.24791e-10
-1.41665e-06
1.99998e-09
-1.42118e-06
4.26003e-09
-1.42771e-06
6.25601e-09
-1.43608e-06
8.098e-09
-1.44618e-06
9.82853e-09
-1.4579e-06
1.1455e-08
-1.47117e-06
1.29938e-08
-1.4859e-06
1.44626e-08
-1.50205e-06
1.58769e-08
-1.51957e-06
1.72499e-08
-1.53843e-06
1.85926e-08
-1.55862e-06
1.99147e-08
-1.58012e-06
2.12246e-08
-1.60292e-06
2.25303e-08
-1.62703e-06
2.38389e-08
-1.65245e-06
2.5157e-08
-1.67922e-06
2.64911e-08
-1.70734e-06
2.78474e-08
-1.73684e-06
2.92318e-08
-1.76776e-06
3.06503e-08
-1.80014e-06
3.21088e-08
-1.83402e-06
3.36129e-08
-1.86946e-06
3.51687e-08
-1.90652e-06
3.67821e-08
-1.94525e-06
3.84591e-08
-1.98572e-06
4.0206e-08
-2.02802e-06
4.20291e-08
-2.07223e-06
4.39351e-08
-2.11843e-06
4.59307e-08
-2.16673e-06
4.80233e-08
-2.21722e-06
5.02208e-08
-2.27002e-06
5.25318e-08
-2.32526e-06
5.49658e-08
-2.38306e-06
5.75332e-08
-2.44358e-06
6.02455e-08
-2.50697e-06
6.31151e-08
-2.57339e-06
6.61555e-08
-2.64305e-06
6.93807e-08
-2.71612e-06
7.28059e-08
-2.79284e-06
7.64473e-08
-2.87343e-06
8.03223e-08
-2.95816e-06
8.44499e-08
-3.04728e-06
8.88507e-08
-3.1411e-06
9.35473e-08
-3.23993e-06
9.85652e-08
-3.34414e-06
1.03933e-07
-3.45409e-06
1.09682e-07
-3.57021e-06
1.15847e-07
-3.69295e-06
1.22466e-07
-3.8228e-06
1.2958e-07
-3.96031e-06
1.37238e-07
-4.10607e-06
1.45489e-07
-4.26073e-06
1.54391e-07
-4.425e-06
1.64005e-07
-4.59968e-06
1.74403e-07
-4.78562e-06
1.85667e-07
-4.98378e-06
1.97887e-07
-5.19522e-06
2.1117e-07
-5.42112e-06
2.25637e-07
-5.66283e-06
2.41435e-07
-5.92184e-06
2.5874e-07
-6.19988e-06
2.77762e-07
-6.4989e-06
2.98754e-07
-6.8212e-06
3.22031e-07
-7.16946e-06
3.47989e-07
-7.54686e-06
3.77126e-07
-7.95719e-06
4.10056e-07
-8.40496e-06
4.47495e-07
-8.89543e-06
4.90191e-07
-9.43447e-06
5.38751e-07
-1.0028e-05
5.93264e-07
-1.06811e-05
6.52669e-07
-1.13954e-05
7.1384e-07
-1.21666e-05
7.70545e-07
-1.29804e-05
8.12755e-07
-1.3809e-05
8.27083e-07
-1.46103e-05
7.99115e-07
-1.53311e-05
7.17598e-07
-1.59146e-05
5.79141e-07
-1.63112e-05
3.91046e-07
-1.64893e-05
1.71109e-07
-1.64486e-05
-4.90687e-08
-1.61713e-05
-2.87558e-07
-1.56659e-05
-5.17133e-07
-1.49462e-05
-7.32384e-07
-1.40417e-05
-9.1784e-07
-1.29948e-05
-1.06031e-06
-1.18558e-05
-1.15193e-06
-1.06782e-05
-1.18979e-06
-9.51509e-06
-1.17431e-06
-8.41724e-06
-1.108e-06
-7.4314e-06
-9.94876e-07
-6.59872e-06
-8.40626e-07
-5.95247e-06
-6.53172e-07
-5.51508e-06
-4.43366e-07
-5.29518e-06
-2.25065e-07
-5.28373e-06
-1.59586e-08
-5.51465e-06
2.26694e-07
-5.96763e-06
4.4893e-07
-6.587e-06
6.15379e-07
-7.30397e-06
7.12945e-07
-8.05712e-06
7.48929e-07
-8.80786e-06
7.46213e-07
-9.54184e-06
7.29043e-07
-1.02705e-05
7.23303e-07
-1.10237e-05
7.47348e-07
-1.18347e-05
8.04702e-07
-1.27249e-05
8.83612e-07
-1.36943e-05
9.62527e-07
-1.47202e-05
1.01878e-06
-1.5764e-05
1.03655e-06
-1.67817e-05
1.01062e-06
-1.77338e-05
9.45287e-07
-1.85904e-05
8.50482e-07
-1.93336e-05
7.37795e-07
-1.99558e-05
6.17987e-07
-2.04591e-05
4.99978e-07
-2.08519e-05
3.9066e-07
-2.11484e-05
2.95076e-07
-2.13659e-05
2.16734e-07
-2.15241e-05
1.57954e-07
-2.16443e-05
1.20173e-07
-2.17483e-05
1.04218e-07
-2.18588e-05
1.10684e-07
-2.19987e-05
1.40149e-07
-2.21892e-05
1.90671e-07
-2.24505e-05
2.61468e-07
-2.28023e-05
3.51946e-07
-2.32627e-05
4.60579e-07
-2.38481e-05
5.85463e-07
-2.45726e-05
7.24454e-07
-2.54478e-05
8.75201e-07
-2.6483e-05
1.03516e-06
-2.76847e-05
1.20159e-06
-2.90564e-05
1.37165e-06
-3.0599e-05
1.54241e-06
-3.23103e-05
1.71101e-06
-3.41852e-05
1.87472e-06
-3.62166e-05
2.03108e-06
-3.83948e-05
2.1779e-06
-4.07085e-05
2.31336e-06
-4.31449e-05
2.436e-06
-4.569e-05
2.54476e-06
-4.83293e-05
2.63893e-06
-5.10478e-05
2.71808e-06
-5.38302e-05
2.78201e-06
-5.66611e-05
2.83058e-06
-5.95251e-05
2.86357e-06
-6.2406e-05
2.88057e-06
-6.52872e-05
2.88077e-06
-6.81503e-05
2.86274e-06
-7.09748e-05
2.82422e-06
-7.37369e-05
2.76175e-06
-7.64076e-05
2.6703e-06
-7.89507e-05
2.54278e-06
-8.13203e-05
2.36925e-06
-8.34562e-05
2.13556e-06
-8.52781e-05
1.82163e-06
-8.66809e-05
1.40241e-06
-8.7534e-05
8.52794e-07
-8.76304e-05
9.61342e-08
-8.67631e-05
-8.67659e-07
-8.46289e-05
-2.1345e-06
-8.09217e-05
-3.7075e-06
-7.53259e-05
-5.59606e-06
-6.7534e-05
-7.79222e-06
-5.72956e-05
-1.02388e-05
-4.45116e-05
-1.27843e-05
-2.94332e-05
-1.50788e-05
-1.31295e-05
-1.6304e-05
1.51802e-06
-1.46479e-05
6.84661e-06
-5.32887e-06
6.84632e-06
-7.37502e-06
1.6445e-05
-1.00873e-05
3.24864e-06
-9.98982e-06
-1.80241e-06
-9.10489e-06
-2.5821e-06
-8.14804e-06
-2.24511e-06
-7.30805e-06
-1.75322e-06
-6.61294e-06
-1.33675e-06
-6.04844e-06
-1.02277e-06
-5.5909e-06
-7.92304e-07
-5.21863e-06
-6.22681e-07
-4.91395e-06
-4.96139e-07
-4.66304e-06
-4.001e-07
-4.45523e-06
-3.25899e-07
-4.2823e-06
-2.6757e-07
-4.13787e-06
-2.2097e-07
-4.01698e-06
-1.83181e-07
-3.91573e-06
-1.52113e-07
-3.83104e-06
-1.26248e-07
-3.76041e-06
-1.04466e-07
-3.70186e-06
-8.59249e-08
-3.65375e-06
-6.99843e-08
-3.61477e-06
-5.61505e-08
-3.5838e-06
-4.40371e-08
-3.55995e-06
-3.33357e-08
-3.54244e-06
-2.37941e-08
-3.53066e-06
-1.51997e-08
-3.52409e-06
-7.36006e-09
-3.52232e-06
-4.32825e-11
-3.52509e-06
6.76036e-09
-3.5321e-06
1.2994e-08
-3.54301e-06
1.87333e-08
-3.55751e-06
2.40628e-08
-3.57538e-06
2.90512e-08
-3.59642e-06
3.37589e-08
-3.62047e-06
3.82392e-08
-3.6474e-06
4.25383e-08
-3.67711e-06
4.66958e-08
-3.70954e-06
5.07455e-08
-3.74461e-06
5.4717e-08
-3.7823e-06
5.86363e-08
-3.82256e-06
6.2527e-08
-3.86541e-06
6.64107e-08
-3.91083e-06
7.03072e-08
-3.95884e-06
7.42352e-08
-4.00948e-06
7.82127e-08
-4.06278e-06
8.22568e-08
-4.11878e-06
8.63845e-08
-4.17756e-06
9.06124e-08
-4.23917e-06
9.49571e-08
-4.30371e-06
9.94354e-08
-4.37126e-06
1.04064e-07
-4.44194e-06
1.08862e-07
-4.51585e-06
1.13845e-07
-4.59312e-06
1.19032e-07
-4.6739e-06
1.24444e-07
-4.75834e-06
1.30099e-07
-4.84661e-06
1.3602e-07
-4.93889e-06
1.4223e-07
-5.03538e-06
1.48752e-07
-5.1363e-06
1.55614e-07
-5.24188e-06
1.62845e-07
-5.35239e-06
1.70477e-07
-5.46808e-06
1.78543e-07
-5.58928e-06
1.8708e-07
-5.7163e-06
1.9613e-07
-5.8495e-06
2.05734e-07
-5.98926e-06
2.15939e-07
-6.13601e-06
2.26796e-07
-6.29019e-06
2.38361e-07
-6.4523e-06
2.50693e-07
-6.62289e-06
2.63861e-07
-6.80253e-06
2.77938e-07
-6.99188e-06
2.93007e-07
-7.19162e-06
3.09158e-07
-7.40254e-06
3.26495e-07
-7.62548e-06
3.45128e-07
-7.86135e-06
3.65184e-07
-8.11119e-06
3.86802e-07
-8.37611e-06
4.10139e-07
-8.65736e-06
4.35371e-07
-8.95632e-06
4.62695e-07
-9.27452e-06
4.92337e-07
-9.61368e-06
5.24556e-07
-9.97572e-06
5.59651e-07
-1.03628e-05
5.97972e-07
-1.07774e-05
6.39929e-07
-1.12222e-05
6.86012e-07
-1.17006e-05
7.36818e-07
-1.22161e-05
7.93083e-07
-1.27734e-05
8.55734e-07
-1.33776e-05
9.25965e-07
-1.40352e-05
1.00533e-06
-1.47543e-05
1.0959e-06
-1.55448e-05
1.20034e-06
-1.64196e-05
1.322e-06
-1.73944e-05
1.4646e-06
-1.84873e-05
1.63131e-06
-1.97173e-05
1.82269e-06
-2.10989e-05
2.03325e-06
-2.26338e-05
2.24731e-06
-2.43018e-05
2.43603e-06
-2.60517e-05
2.55862e-06
-2.77999e-05
2.5695e-06
-2.94393e-05
2.43036e-06
-3.08546e-05
2.12239e-06
-3.19419e-05
1.65359e-06
-3.26239e-05
1.05817e-06
-3.2859e-05
3.89456e-07
-3.26312e-05
-2.95271e-07
-3.19796e-05
-9.58502e-07
-3.09593e-05
-1.55639e-06
-2.96576e-05
-2.05171e-06
-2.81688e-05
-2.42225e-06
-2.65808e-05
-2.66192e-06
-2.49688e-05
-2.7753e-06
-2.33961e-05
-2.77184e-06
-2.1916e-05
-2.66188e-06
-2.05747e-05
-2.45519e-06
-1.94125e-05
-2.1614e-06
-1.84651e-05
-1.79124e-06
-1.7763e-05
-1.35727e-06
-1.73354e-05
-8.72112e-07
-1.72298e-05
-3.31234e-07
-1.75386e-05
2.92497e-07
-1.82804e-05
9.68106e-07
-1.94369e-05
1.60479e-06
-2.09743e-05
2.15136e-06
-2.28483e-05
2.58453e-06
-2.50077e-05
2.90456e-06
-2.73952e-05
3.12874e-06
-2.99537e-05
3.28159e-06
-3.26225e-05
3.38565e-06
-3.53358e-05
3.45418e-06
-3.80264e-05
3.48925e-06
-4.06333e-05
3.48501e-06
-4.31079e-05
3.43219e-06
-4.54157e-05
3.32218e-06
-4.75341e-05
3.15128e-06
-4.94494e-05
2.92288e-06
-5.11538e-05
2.64726e-06
-5.26448e-05
2.33964e-06
-5.39254e-05
2.01723e-06
-5.50051e-05
1.69688e-06
-5.58992e-05
1.39359e-06
-5.66286e-05
1.11981e-06
-5.72186e-05
8.85036e-07
-5.76977e-05
6.95789e-07
-5.80958e-05
5.56003e-07
-5.84432e-05
4.67451e-07
-5.87693e-05
4.30245e-07
-5.91022e-05
4.43387e-07
-5.94674e-05
5.05079e-07
-5.98892e-05
6.12224e-07
-6.03891e-05
7.61147e-07
-6.09853e-05
9.47816e-07
-6.16928e-05
1.16766e-06
-6.25233e-05
1.4156e-06
-6.34854e-05
1.68615e-06
-6.45841e-05
1.97353e-06
-6.58212e-05
2.27182e-06
-6.7195e-05
2.57501e-06
-6.87009e-05
2.87716e-06
-7.03314e-05
3.1725e-06
-7.20765e-05
3.45561e-06
-7.39237e-05
3.72154e-06
-7.5859e-05
3.96593e-06
-7.78666e-05
4.18512e-06
-7.99297e-05
4.37617e-06
-8.2031e-05
4.53693e-06
-8.41526e-05
4.66597e-06
-8.62765e-05
4.76251e-06
-8.8385e-05
4.82628e-06
-9.04606e-05
4.85735e-06
-9.24862e-05
4.85586e-06
-9.44447e-05
4.82181e-06
-9.63191e-05
4.75472e-06
-9.80918e-05
4.65328e-06
-9.97442e-05
4.51497e-06
-0.000101256
4.33556e-06
-0.000102603
4.10858e-06
-0.000103757
3.82449e-06
-0.000104684
3.46979e-06
-0.000105341
3.02562e-06
-0.000105671
2.46572e-06
-0.000105603
1.75359e-06
-0.000105038
8.37141e-07
-0.000103844
-3.4163e-07
-0.00010194
-1.80808e-06
-9.91623e-05
-3.64573e-06
-9.53707e-05
-5.92631e-06
-9.03425e-05
-8.73596e-06
-8.38079e-05
-1.21309e-05
-7.54889e-05
-1.61115e-05
-6.51548e-05
-2.05731e-05
-5.2725e-05
-2.52144e-05
-3.84496e-05
-2.93544e-05
-2.31937e-05
-3.15602e-05
-8.90183e-06
-2.89402e-05
1.6309e-06
-1.5862e-05
8.47693e-06
-5.9531e-06
2.23978e-05
-8.99024e-06
6.28552e-06
-9.72198e-06
-1.07094e-06
-9.53943e-06
-2.76492e-06
-9.06603e-06
-2.71878e-06
-8.5369e-06
-2.28262e-06
-8.0342e-06
-1.83971e-06
-7.5838e-06
-1.47344e-06
-7.19035e-06
-1.18602e-06
-6.85067e-06
-9.62639e-07
-6.55897e-06
-7.88103e-07
-6.30906e-06
-6.50289e-07
-6.09509e-06
-5.40135e-07
-5.91194e-06
-4.50991e-07
-5.75521e-06
-3.77976e-07
-5.62117e-06
-3.17486e-07
-5.50673e-06
-2.66832e-07
-5.40926e-06
-2.23984e-07
-5.3266e-06
-1.87396e-07
-5.25693e-06
-1.55873e-07
-5.1987e-06
-1.28483e-07
-5.15063e-06
-1.04492e-07
-5.11162e-06
-8.33142e-08
-5.08075e-06
-6.44752e-08
-5.05723e-06
-4.75865e-08
-5.04038e-06
-3.23224e-08
-5.02961e-06
-1.83966e-08
-5.02439e-06
-5.53584e-09
-5.02438e-06
6.47653e-09
-5.02931e-06
1.76529e-08
-5.03889e-06
2.8039e-08
-5.05283e-06
3.77327e-08
-5.07088e-06
4.68354e-08
-5.09284e-06
5.54454e-08
-5.11852e-06
6.36504e-08
-5.14778e-06
7.15276e-08
-5.1805e-06
7.91443e-08
-5.21659e-06
8.65591e-08
-5.25597e-06
9.38237e-08
-5.29859e-06
1.00984e-07
-5.34441e-06
1.08083e-07
-5.39343e-06
1.15157e-07
-5.44564e-06
1.22243e-07
-5.50105e-06
1.29373e-07
-5.55969e-06
1.36581e-07
-5.6216e-06
1.43896e-07
-5.68683e-06
1.51349e-07
-5.75546e-06
1.58969e-07
-5.82756e-06
1.66786e-07
-5.90323e-06
1.7483e-07
-5.98256e-06
1.83131e-07
-6.06569e-06
1.91721e-07
-6.15275e-06
2.00631e-07
-6.24389e-06
2.09896e-07
-6.33926e-06
2.19551e-07
-6.43907e-06
2.29631e-07
-6.54349e-06
2.40175e-07
-6.65276e-06
2.51225e-07
-6.7671e-06
2.62826e-07
-6.88679e-06
2.75024e-07
-7.01208e-06
2.87873e-07
-7.14331e-06
3.01428e-07
-7.28079e-06
3.1575e-07
-7.42488e-06
3.30904e-07
-7.57599e-06
3.46963e-07
-7.73453e-06
3.64005e-07
-7.90097e-06
3.82114e-07
-8.07583e-06
4.01382e-07
-8.25965e-06
4.21911e-07
-8.45304e-06
4.43812e-07
-8.65666e-06
4.6721e-07
-8.87124e-06
4.92241e-07
-9.09756e-06
5.19055e-07
-9.33649e-06
5.47823e-07
-9.589e-06
5.78732e-07
-9.85614e-06
6.11992e-07
-1.01391e-05
6.4784e-07
-1.04391e-05
6.86539e-07
-1.07576e-05
7.2839e-07
-1.10962e-05
7.7373e-07
-1.14567e-05
8.22945e-07
-1.18412e-05
8.76479e-07
-1.22517e-05
9.34844e-07
-1.2691e-05
9.98639e-07
-1.31618e-05
1.06857e-06
-1.36677e-05
1.14548e-06
-1.42123e-05
1.2304e-06
-1.48004e-05
1.32458e-06
-1.54372e-05
1.42962e-06
-1.61293e-05
1.54757e-06
-1.68847e-05
1.68113e-06
-1.77136e-05
1.83392e-06
-1.86287e-05
2.01078e-06
-1.96467e-05
2.21795e-06
-2.0788e-05
2.46291e-06
-2.20769e-05
2.75306e-06
-2.3539e-05
3.09254e-06
-2.51943e-05
3.47653e-06
-2.70472e-05
3.88364e-06
-2.90738e-05
4.26976e-06
-3.12124e-05
4.56799e-06
-3.33624e-05
4.6988e-06
-3.53952e-05
4.58893e-06
-3.71743e-05
4.19249e-06
-3.8578e-05
3.50569e-06
-3.95177e-05
2.57036e-06
-3.99503e-05
1.46601e-06
-3.98789e-05
2.9274e-07
-3.93468e-05
-8.52279e-07
-3.84507e-05
-1.87715e-06
-3.73088e-05
-2.71763e-06
-3.60335e-05
-3.34289e-06
-3.47151e-05
-3.7533e-06
-3.34214e-05
-3.96529e-06
-3.22036e-05
-4.00034e-06
-3.11026e-05
-3.87796e-06
-3.01552e-05
-3.61279e-06
-2.93979e-05
-3.21448e-06
-2.88713e-05
-2.68888e-06
-2.86235e-05
-2.03884e-06
-2.87182e-05
-1.26156e-06
-2.92642e-05
-3.24512e-07
-3.03592e-05
7.65422e-07
-3.19401e-05
1.87529e-06
-3.38753e-05
2.90521e-06
-3.61028e-05
3.83335e-06
-3.85891e-05
4.63749e-06
-4.13051e-05
5.29878e-06
-4.4212e-05
5.80867e-06
-4.72572e-05
6.17021e-06
-5.03748e-05
6.39529e-06
-5.34922e-05
6.49935e-06
-5.65377e-05
6.4965e-06
-5.94481e-05
6.39699e-06
-6.21724e-05
6.20744e-06
-6.46742e-05
5.93262e-06
-6.69308e-05
5.57798e-06
-6.8932e-05
5.15213e-06
-7.06774e-05
4.66825e-06
-7.2174e-05
4.14411e-06
-7.34349e-05
3.60082e-06
-7.44776e-05
3.06039e-06
-7.53238e-05
2.54341e-06
-7.59981e-05
2.06801e-06
-7.65273e-05
1.6491e-06
-7.69399e-05
1.29759e-06
-7.72647e-05
1.02034e-06
-7.75297e-05
8.20532e-07
-7.77612e-05
6.98416e-07
-7.79836e-05
6.5198e-07
-7.82187e-05
6.77724e-07
-7.84856e-05
7.71144e-07
-7.8801e-05
9.26778e-07
-7.91791e-05
1.13835e-06
-7.96312e-05
1.39897e-06
-8.01656e-05
1.70116e-06
-8.07878e-05
2.0369e-06
-8.15003e-05
2.3978e-06
-8.23029e-05
2.77523e-06
-8.31924e-05
3.16052e-06
-8.41632e-05
3.5451e-06
-8.52075e-05
3.9207e-06
-8.63152e-05
4.27953e-06
-8.74747e-05
4.61448e-06
-8.8673e-05
4.91929e-06
-8.98963e-05
5.18865e-06
-9.11299e-05
5.41834e-06
-9.23594e-05
5.60523e-06
-9.35701e-05
5.74731e-06
-9.4748e-05
5.84357e-06
-9.58796e-05
5.89393e-06
-9.69525e-05
5.89896e-06
-9.79549e-05
5.85965e-06
-9.88763e-05
5.77711e-06
-9.97067e-05
5.65215e-06
-0.000100437
5.48495e-06
-0.000101058
5.27457e-06
-0.000101562
5.01837e-06
-0.000101938
4.7115e-06
-0.000102175
4.34613e-06
-0.000102261
3.91047e-06
-0.000102179
3.3875e-06
-0.000101906
2.75313e-06
-0.000101414
1.97358e-06
-0.000100663
1.0017e-06
-9.95912e-05
-2.34213e-07
-9.81918e-05
-1.74116e-06
-9.63669e-05
-3.63311e-06
-9.39809e-05
-6.0319e-06
-9.08468e-05
-9.0606e-06
-8.67425e-05
-1.28404e-05
-8.14108e-05
-1.74627e-05
-7.45772e-05
-2.29454e-05
-6.59935e-05
-2.91569e-05
-5.55236e-05
-3.56846e-05
-4.32827e-05
-4.15957e-05
-2.98221e-05
-4.5021e-05
-1.62468e-05
-4.25158e-05
-3.56341e-06
-2.85457e-05
4.9132e-06
-5.05776e-06
2.74553e-05
-8.00461e-06
9.2321e-06
-9.09899e-06
2.31778e-08
-9.29433e-06
-2.56984e-06
-9.14251e-06
-2.87088e-06
-8.86457e-06
-2.56083e-06
-8.55084e-06
-2.15371e-06
-8.23993e-06
-1.78461e-06
-7.94845e-06
-1.47778e-06
-7.68288e-06
-1.22848e-06
-7.44487e-06
-1.02639e-06
-7.23369e-06
-8.61738e-07
-7.04755e-06
-7.26545e-07
-6.88425e-06
-6.14567e-07
-6.74151e-06
-5.20984e-07
-6.61718e-06
-4.42085e-07
-6.50929e-06
-3.74994e-07
-6.41607e-06
-3.17474e-07
-6.33597e-06
-2.6777e-07
-6.26762e-06
-2.24491e-07
-6.20985e-06
-1.86532e-07
-6.16161e-06
-1.53001e-07
-6.12202e-06
-1.23177e-07
-6.09029e-06
-9.64691e-08
-6.06576e-06
-7.23891e-08
-6.04783e-06
-5.05279e-08
-6.03596e-06
-3.05357e-08
-6.02967e-06
-1.21001e-08
-6.02859e-06
5.12971e-09
-6.03237e-06
2.11593e-08
-6.04082e-06
3.62182e-08
-6.05373e-06
5.0374e-08
-6.07091e-06
6.37431e-08
-6.09218e-06
7.64458e-08
-6.1174e-06
8.85928e-08
-6.14642e-06
1.00284e-07
-6.17916e-06
1.11608e-07
-6.21552e-06
1.22645e-07
-6.25543e-06
1.33467e-07
-6.29885e-06
1.44137e-07
-6.34576e-06
1.54715e-07
-6.39613e-06
1.65255e-07
-6.44997e-06
1.7581e-07
-6.50729e-06
1.86425e-07
-6.56813e-06
1.97149e-07
-6.63253e-06
2.08026e-07
-6.70055e-06
2.19099e-07
-6.77227e-06
2.30412e-07
-6.84776e-06
2.42009e-07
-6.92714e-06
2.53934e-07
-7.01051e-06
2.66231e-07
-7.098e-06
2.78946e-07
-7.18977e-06
2.92127e-07
-7.28597e-06
3.05824e-07
-7.38678e-06
3.20089e-07
-7.4924e-06
3.34976e-07
-7.60303e-06
3.50542e-07
-7.71893e-06
3.66851e-07
-7.84034e-06
3.83966e-07
-7.96755e-06
4.0196e-07
-8.10086e-06
4.2091e-07
-8.2406e-06
4.40899e-07
-8.38714e-06
4.62016e-07
-8.54087e-06
4.84361e-07
-8.70221e-06
5.0804e-07
-8.87165e-06
5.33169e-07
-9.04968e-06
5.59876e-07
-9.23687e-06
5.88301e-07
-9.43383e-06
6.18596e-07
-9.64122e-06
6.50931e-07
-9.85977e-06
6.85493e-07
-1.00903e-05
7.22491e-07
-1.03337e-05
7.62155e-07
-1.05909e-05
8.04742e-07
-1.08629e-05
8.50543e-07
-1.11511e-05
8.9988e-07
-1.14566e-05
9.53119e-07
-1.17811e-05
1.01067e-06
-1.21259e-05
1.073e-06
-1.24931e-05
1.14065e-06
-1.28847e-05
1.21423e-06
-1.33029e-05
1.29445e-06
-1.37505e-05
1.38212e-06
-1.42304e-05
1.47824e-06
-1.4746e-05
1.58395e-06
-1.53014e-05
1.70065e-06
-1.59014e-05
1.83006e-06
-1.65514e-05
1.97432e-06
-1.72582e-05
2.13616e-06
-1.80301e-05
2.31916e-06
-1.88773e-05
2.52808e-06
-1.9813e-05
2.76929e-06
-2.08537e-05
3.05117e-06
-2.20203e-05
3.3842e-06
-2.33378e-05
3.77988e-06
-2.48331e-05
4.24751e-06
-2.65298e-05
4.78758e-06
-2.8438e-05
5.38189e-06
-3.05424e-05
5.98324e-06
-3.27912e-05
6.51071e-06
-3.5092e-05
6.85714e-06
-3.73201e-05
6.91062e-06
-3.9336e-05
6.58401e-06
-4.10098e-05
5.84129e-06
-4.22437e-05
4.71137e-06
-4.29887e-05
3.28562e-06
-4.32534e-05
1.70093e-06
-4.31002e-05
1.11578e-07
-4.26352e-05
-1.34161e-06
-4.19808e-05
-2.55131e-06
-4.12457e-05
-3.46815e-06
-4.05109e-05
-4.08909e-06
-3.9834e-05
-4.43833e-06
-3.92565e-05
-4.54836e-06
-3.88121e-05
-4.44823e-06
-3.8534e-05
-4.15811e-06
-3.84593e-05
-3.68839e-06
-3.86324e-05
-3.04124e-06
-3.91068e-05
-2.2136e-06
-3.99471e-05
-1.19698e-06
-4.12268e-05
2.01226e-08
-4.28994e-05
1.35056e-06
-4.47985e-05
2.66726e-06
-4.68498e-05
3.92921e-06
-4.90762e-05
5.13358e-06
-5.14817e-05
6.23994e-06
-5.40485e-05
7.20459e-06
-5.67441e-05
7.99385e-06
-5.95246e-05
8.58821e-06
-6.23374e-05
8.98196e-06
-6.51235e-05
9.18058e-06
-6.78215e-05
9.19702e-06
-7.03728e-05
9.04794e-06
-7.27264e-05
8.75129e-06
-7.48431e-05
8.32525e-06
-7.66973e-05
7.78834e-06
-7.82779e-05
7.16032e-06
-7.95872e-05
6.46318e-06
-8.06386e-05
5.72135e-06
-8.1454e-05
4.96112e-06
-8.20615e-05
4.20965e-06
-8.24928e-05
3.49272e-06
-8.27806e-05
2.83189e-06
-8.2957e-05
2.24477e-06
-8.30529e-05
1.74506e-06
-8.30971e-05
1.34143e-06
-8.31149e-05
1.0375e-06
-8.31279e-05
8.32605e-07
-8.31536e-05
7.22981e-07
-8.32055e-05
7.02662e-07
-8.3294e-05
7.64792e-07
-8.34265e-05
9.02165e-07
-8.36084e-05
1.10714e-06
-8.38431e-05
1.37158e-06
-8.41325e-05
1.68682e-06
-8.44765e-05
2.04363e-06
-8.48734e-05
2.43231e-06
-8.53198e-05
2.84281e-06
-8.58108e-05
3.26493e-06
-8.63401e-05
3.68852e-06
-8.68998e-05
4.10372e-06
-8.74813e-05
4.50117e-06
-8.8075e-05
4.87224e-06
-8.86705e-05
5.20923e-06
-8.92575e-05
5.5056e-06
-8.98256e-05
5.75607e-06
-9.03644e-05
5.95672e-06
-9.08646e-05
6.10502e-06
-9.13174e-05
6.1998e-06
-9.17152e-05
6.24109e-06
-9.20513e-05
6.22997e-06
-9.23207e-05
6.16829e-06
-9.25194e-05
6.05836e-06
-9.26448e-05
5.9025e-06
-9.26952e-05
5.70271e-06
-9.26703e-05
5.46013e-06
-9.25701e-05
5.17455e-06
-9.23953e-05
4.84375e-06
-9.21465e-05
4.46291e-06
-9.18242e-05
4.02394e-06
-9.14278e-05
3.51418e-06
-9.0955e-05
2.91482e-06
-9.04005e-05
2.19876e-06
-8.97537e-05
1.32679e-06
-8.8993e-05
2.41088e-07
-8.81415e-05
-1.08578e-06
-8.71395e-05
-2.74317e-06
-8.58981e-05
-4.87459e-06
-8.43031e-05
-7.62698e-06
-8.22005e-05
-1.11633e-05
-7.93915e-05
-1.56495e-05
-7.56303e-05
-2.12241e-05
-7.06343e-05
-2.79416e-05
-6.41142e-05
-3.56772e-05
-5.58352e-05
-4.39638e-05
-4.57107e-05
-5.17204e-05
-3.39111e-05
-5.68208e-05
-2.09762e-05
-5.5451e-05
-8.3918e-06
-4.11304e-05
-3.47898e-06
-4.41378e-06
3.18687e-05
-7.21372e-06
1.20318e-05
-8.45951e-06
1.2687e-06
-8.85871e-06
-2.17091e-06
-8.90238e-06
-2.82747e-06
-8.7943e-06
-2.66919e-06
-8.62212e-06
-2.32616e-06
-8.42628e-06
-1.98072e-06
-8.22694e-06
-1.6774e-06
-8.03454e-06
-1.42115e-06
-7.8544e-06
-1.2068e-06
-7.68893e-06
-1.02747e-06
-7.53892e-06
-8.76832e-07
-7.40419e-06
-7.49563e-07
-7.2841e-06
-6.4135e-07
-7.17773e-06
-5.48721e-07
-7.0841e-06
-4.68895e-07
-7.00221e-06
-3.9964e-07
-6.93109e-06
-3.39157e-07
-6.86986e-06
-2.85992e-07
-6.81771e-06
-2.38959e-07
-6.77389e-06
-1.97091e-07
-6.73775e-06
-1.59588e-07
-6.7087e-06
-1.2579e-07
-6.68621e-06
-9.51437e-08
-6.66983e-06
-6.71858e-08
-6.65911e-06
-4.15212e-08
-6.65368e-06
-1.78062e-08
-6.65316e-06
4.34418e-09
-6.65727e-06
2.49964e-08
-6.66581e-06
4.4489e-08
-6.67863e-06
6.29184e-08
-6.69558e-06
8.04224e-08
-6.71654e-06
9.71339e-08
-6.7414e-06
1.13179e-07
-6.77006e-06
1.28672e-07
-6.80244e-06
1.43718e-07
-6.83848e-06
1.58413e-07
-6.87813e-06
1.72844e-07
-6.92135e-06
1.87091e-07
-6.96814e-06
2.01228e-07
-7.01847e-06
2.15323e-07
-7.07238e-06
2.29444e-07
-7.12988e-06
2.4365e-07
-7.191e-06
2.58003e-07
-7.25581e-06
2.72561e-07
-7.32436e-06
2.87382e-07
-7.39674e-06
3.02521e-07
-7.47304e-06
3.18037e-07
-7.55337e-06
3.33988e-07
-7.63784e-06
3.50433e-07
-7.7266e-06
3.67433e-07
-7.81979e-06
3.85052e-07
-7.9176e-06
4.03356e-07
-8.02019e-06
4.22414e-07
-8.12779e-06
4.42299e-07
-8.24061e-06
4.63089e-07
-8.35889e-06
4.84867e-07
-8.48292e-06
5.07721e-07
-8.61298e-06
5.31746e-07
-8.74938e-06
5.57046e-07
-8.89249e-06
5.83733e-07
-9.04267e-06
6.11927e-07
-9.20034e-06
6.41762e-07
-9.36596e-06
6.7338e-07
-9.54e-06
7.06939e-07
-9.723e-06
7.42612e-07
-9.91556e-06
7.80588e-07
-1.01183e-05
8.21076e-07
-1.0332e-05
8.64307e-07
-1.05573e-05
9.10535e-07
-1.07951e-05
9.60046e-07
-1.10464e-05
1.01316e-06
-1.13121e-05
1.07022e-06
-1.15935e-05
1.13163e-06
-1.18917e-05
1.19785e-06
-1.22082e-05
1.26937e-06
-1.25446e-05
1.34676e-06
-1.29026e-05
1.43069e-06
-1.32841e-05
1.5219e-06
-1.36914e-05
1.62125e-06
-1.4127e-05
1.72977e-06
-1.45937e-05
1.84861e-06
-1.50949e-05
1.97919e-06
-1.56344e-05
2.12316e-06
-1.62166e-05
2.28257e-06
-1.68467e-05
2.45992e-06
-1.75311e-05
2.65835e-06
-1.82771e-05
2.88193e-06
-1.90942e-05
3.13596e-06
-1.99939e-05
3.42749e-06
-2.09907e-05
3.76584e-06
-2.21029e-05
4.16301e-06
-2.33524e-05
4.63325e-06
-2.47642e-05
5.19083e-06
-2.63624e-05
5.84439e-06
-2.81642e-05
6.58695e-06
-3.01694e-05
7.38276e-06
-3.23495e-05
8.15608e-06
-3.46403e-05
8.79011e-06
-3.69424e-05
9.14292e-06
-3.91329e-05
9.07947e-06
-4.10853e-05
8.50974e-06
-4.26934e-05
7.41867e-06
-4.38921e-05
5.87733e-06
-4.46717e-05
4.03249e-06
-4.5079e-05
2.07779e-06
-4.52066e-05
2.1283e-07
-4.51697e-05
-1.39926e-06
-4.50736e-05
-2.66286e-06
-4.49949e-05
-3.55785e-06
-4.49852e-05
-4.10605e-06
-4.50809e-05
-4.34726e-06
-4.53106e-05
-4.3213e-06
-4.57015e-05
-4.05866e-06
-4.62819e-05
-3.57805e-06
-4.70813e-05
-2.88858e-06
-4.81278e-05
-1.99372e-06
-4.9445e-05
-8.94941e-07
-5.10278e-05
3.87769e-07
-5.27649e-05
1.75955e-06
-5.45602e-05
3.14839e-06
-5.64391e-05
4.54858e-06
-5.84392e-05
5.93158e-06
-6.055e-05
7.24631e-06
-6.27463e-05
8.43782e-06
-6.49972e-05
9.4568e-06
-6.72669e-05
1.02648e-05
-6.95144e-05
1.08371e-05
-7.16942e-05
1.11633e-05
-7.3758e-05
1.12464e-05
-7.56578e-05
1.10994e-05
-7.73502e-05
1.07432e-05
-7.87995e-05
1.02038e-05
-7.99815e-05
9.51068e-06
-8.08853e-05
8.69573e-06
-8.15145e-05
7.79301e-06
-8.18862e-05
6.83808e-06
-8.2029e-05
5.86709e-06
-8.198e-05
4.91455e-06
-8.17808e-05
4.0125e-06
-8.14761e-05
3.1894e-06
-8.11084e-05
2.46503e-06
-8.07151e-05
1.85187e-06
-8.03294e-05
1.35907e-06
-7.99779e-05
9.89275e-07
-7.96805e-05
7.38946e-07
-7.94489e-05
5.99654e-07
-7.92885e-05
5.6077e-07
-7.91987e-05
6.10981e-07
-7.91759e-05
7.39981e-07
-7.92143e-05
9.38326e-07
-7.93067e-05
1.19739e-06
-7.94459e-05
1.5086e-06
-7.96242e-05
1.86297e-06
-7.98337e-05
2.25106e-06
-8.00663e-05
2.66297e-06
-8.03139e-05
3.08851e-06
-8.0568e-05
3.51732e-06
-8.08202e-05
3.93916e-06
-8.10621e-05
4.34414e-06
-8.12852e-05
4.72298e-06
-8.14814e-05
5.06729e-06
-8.1643e-05
5.3698e-06
-8.17627e-05
5.62452e-06
-8.18343e-05
5.82693e-06
-8.18521e-05
5.97406e-06
-8.1812e-05
6.06446e-06
-8.17106e-05
6.09816e-06
-8.15462e-05
6.07651e-06
-8.13182e-05
6.00193e-06
-8.10275e-05
5.87764e-06
-8.06763e-05
5.70725e-06
-8.02679e-05
5.49433e-06
-7.9807e-05
5.24196e-06
-7.92988e-05
4.95226e-06
-7.87499e-05
4.62592e-06
-7.81671e-05
4.26132e-06
-7.75581e-05
3.85413e-06
-7.69309e-05
3.39705e-06
-7.62946e-05
2.87816e-06
-7.56578e-05
2.27827e-06
-7.50289e-05
1.57009e-06
-7.44188e-05
7.16801e-07
-7.38496e-05
-3.28029e-07
-7.33254e-05
-1.6099e-06
-7.28057e-05
-3.26285e-06
-7.22319e-05
-5.44839e-06
-7.15206e-05
-8.3384e-06
-7.05491e-05
-1.21348e-05
-6.91425e-05
-1.70562e-05
-6.70636e-05
-2.33032e-05
-6.40135e-05
-3.09918e-05
-5.96485e-05
-4.00423e-05
-5.36169e-05
-4.99955e-05
-4.56216e-05
-5.97159e-05
-3.55235e-05
-6.6919e-05
-2.35606e-05
-6.74142e-05
-1.08518e-05
-5.38395e-05
-1.43312e-05
-3.93678e-06
3.58052e-05
-6.61679e-06
1.47115e-05
-7.89047e-06
2.54211e-06
-8.39594e-06
-1.66572e-06
-8.55356e-06
-2.67013e-06
-8.55371e-06
-2.66931e-06
-8.47909e-06
-2.40105e-06
-8.36825e-06
-2.09184e-06
-8.24124e-06
-1.80467e-06
-8.10948e-06
-1.55318e-06
-7.97969e-06
-1.33686e-06
-7.85582e-06
-1.15161e-06
-7.74009e-06
-9.92831e-07
-7.63362e-06
-8.56311e-07
-7.53681e-06
-7.38425e-07
-7.44967e-06
-6.36133e-07
-7.37193e-06
-5.46907e-07
-7.30319e-06
-4.68655e-07
-7.24297e-06
-3.99648e-07
-7.19078e-06
-3.38456e-07
-7.14612e-06
-2.8389e-07
-7.10851e-06
-2.34963e-07
-7.07753e-06
-1.90848e-07
-7.05274e-06
-1.50848e-07
-7.03377e-06
-1.14379e-07
-7.02029e-06
-8.09445e-08
-7.01196e-06
-5.01194e-08
-7.0085e-06
-2.1535e-08
-7.0096e-06
5.16873e-09
-7.01506e-06
3.01887e-08
-7.02468e-06
5.38319e-08
-7.03832e-06
7.62891e-08
-7.05588e-06
9.77129e-08
-7.07727e-06
1.18252e-07
-7.10241e-06
1.38046e-07
-7.13123e-06
1.57221e-07
-7.16367e-06
1.75894e-07
-7.19971e-06
1.94174e-07
-7.23929e-06
2.12159e-07
-7.28242e-06
2.29944e-07
-7.32907e-06
2.47615e-07
-7.37928e-06
2.65253e-07
-7.43304e-06
2.82937e-07
-7.4904e-06
3.00742e-07
-7.55141e-06
3.1874e-07
-7.61612e-06
3.37003e-07
-7.68461e-06
3.556e-07
-7.75697e-06
3.74602e-07
-7.83328e-06
3.94079e-07
-7.91367e-06
4.14104e-07
-7.99825e-06
4.3475e-07
-8.08719e-06
4.56093e-07
-8.18062e-06
4.78212e-07
-8.27872e-06
5.0119e-07
-8.38169e-06
5.25114e-07
-8.48974e-06
5.50075e-07
-8.60309e-06
5.76171e-07
-8.722e-06
6.03506e-07
-8.84675e-06
6.32191e-07
-8.97762e-06
6.62347e-07
-9.11495e-06
6.94103e-07
-9.25908e-06
7.276e-07
-9.41042e-06
7.62991e-07
-9.56937e-06
8.00442e-07
-9.7364e-06
8.40135e-07
-9.912e-06
8.8227e-07
-1.00967e-05
9.27065e-07
-1.02912e-05
9.7476e-07
-1.0496e-05
1.02562e-06
-1.07119e-05
1.07994e-06
-1.09397e-05
1.13805e-06
-1.11802e-05
1.2003e-06
-1.14344e-05
1.26711e-06
-1.17034e-05
1.33893e-06
-1.19883e-05
1.41626e-06
-1.22904e-05
1.49968e-06
-1.26112e-05
1.58985e-06
-1.29522e-05
1.68751e-06
-1.33153e-05
1.79349e-06
-1.37024e-05
1.90879e-06
-1.4116e-05
2.03453e-06
-1.45585e-05
2.17202e-06
-1.5033e-05
2.32281e-06
-1.55428e-05
2.48874e-06
-1.60919e-05
2.67202e-06
-1.66849e-05
2.87533e-06
-1.73273e-05
3.102e-06
-1.80254e-05
3.35621e-06
-1.87871e-05
3.64333e-06
-1.96218e-05
3.97037e-06
-2.05411e-05
4.34652e-06
-2.15594e-05
4.78378e-06
-2.26939e-05
5.29714e-06
-2.39648e-05
5.90363e-06
-2.53938e-05
6.61885e-06
-2.70004e-05
7.4492e-06
-2.87959e-05
8.3793e-06
-3.07755e-05
9.35668e-06
-3.29093e-05
1.02806e-05
-3.5138e-05
1.10047e-05
-3.73747e-05
1.13598e-05
-3.95157e-05
1.11948e-05
-4.14587e-05
1.04222e-05
-4.31245e-05
9.05053e-06
-4.44745e-05
7.19248e-06
-4.55192e-05
5.04413e-06
-4.63125e-05
2.842e-06
-4.69341e-05
8.1104e-07
-4.74704e-05
-8.80169e-07
-4.7995e-05
-2.1501e-06
-4.85639e-05
-2.99658e-06
-4.92135e-05
-3.46094e-06
-4.99695e-05
-3.59359e-06
-5.08519e-05
-3.43988e-06
-5.18767e-05
-3.03392e-06
-5.30556e-05
-2.39855e-06
-5.43934e-05
-1.5498e-06
-5.5885e-05
-5.00674e-07
-5.74936e-05
7.15482e-07
-5.91328e-05
2.02897e-06
-6.07814e-05
3.41038e-06
-6.24797e-05
4.84893e-06
-6.42348e-05
6.30608e-06
-6.6029e-05
7.72826e-06
-6.78365e-05
9.0563e-06
-6.96279e-05
1.02318e-05
-7.13712e-05
1.12029e-05
-7.30323e-05
1.19289e-05
-7.45751e-05
1.23832e-05
-7.59619e-05
1.2554e-05
-7.71551e-05
1.24439e-05
-7.81196e-05
1.20687e-05
-7.8826e-05
1.14547e-05
-7.92534e-05
1.06365e-05
-7.93927e-05
9.65523e-06
-7.92481e-05
8.55629e-06
-7.88382e-05
7.38802e-06
-7.81953e-05
6.19958e-06
-7.73634e-05
5.03918e-06
-7.63956e-05
3.94991e-06
-7.53475e-05
2.96693e-06
-7.42795e-05
2.12312e-06
-7.32507e-05
1.43723e-06
-7.23029e-05
9.04267e-07
-7.14688e-05
5.24433e-07
-7.07691e-05
2.88369e-07
-7.02124e-05
1.80544e-07
-6.97949e-05
1.80039e-07
-6.9506e-05
2.69474e-07
-6.93325e-05
4.34948e-07
-6.92571e-05
6.61811e-07
-6.926e-05
9.38456e-07
-6.93223e-05
1.25693e-06
-6.94265e-05
1.61003e-06
-6.95565e-05
1.99026e-06
-6.96975e-05
2.38962e-06
-6.98365e-05
2.79957e-06
-6.99614e-05
3.2112e-06
-7.00615e-05
3.61537e-06
-7.01272e-05
4.00293e-06
-7.01498e-05
4.36508e-06
-7.01219e-05
4.69356e-06
-7.00369e-05
4.98106e-06
-6.98896e-05
5.2214e-06
-6.96758e-05
5.40975e-06
-6.93924e-05
5.54282e-06
-6.90377e-05
5.61887e-06
-6.86115e-05
5.63778e-06
-6.81145e-05
5.60091e-06
-6.7549e-05
5.51098e-06
-6.69188e-05
5.37175e-06
-6.62288e-05
5.18774e-06
-6.54852e-05
4.96386e-06
-6.46956e-05
4.70494e-06
-6.38685e-05