/*--------------------------------*- C++ -*----------------------------------*\
  =========                 |
  \\      /  F ield         | OpenFOAM: The Open Source CFD Toolbox
   \\    /   O peration     | Website:  https://openfoam.org
    \\  /    A nd           | Version:  12
     \\/     M anipulation  |
\*---------------------------------------------------------------------------*/
FoamFile
{
    format      ascii;
    class       surfaceScalarField;
    location    "10";
    object      phi;
}
// * * * * * * * * * * * * * * * * * * * * * * * * * * * * * * * * * * * * * //

dimensions      [1 0 -1 0 0 0 0];

internalField   nonuniform List<scalar> 
79600
(
-9.0705574895287072e-06
9.0702587912272389e-06
-9.607435384544345e-06
5.366217444436789e-07
-7.903046117220098e-06
-1.7046600126782108e-06
-6.2064108431413902e-06
-1.6969019322085565e-06
-4.9186854643444712e-06
-1.2879931190867782e-06
-4.0060071762832707e-06
-9.1295027337019524e-07
-3.3649072392816146e-06
-6.4137458948666591e-07
-2.9071880330775183e-06
-4.5799297447922009e-07
-2.5729641555336374e-06
-3.3449591841823941e-07
-2.3230984507684405e-06
-2.5013656158292798e-07
-2.1321820988584397e-06
-1.911873596012479e-07
-1.9835340682470813e-06
-1.4892020267857144e-07
-1.8659867022080902e-06
-1.1781939653842548e-07
-1.7718946034843997e-06
-9.4364431515077015e-08
-1.6958959475162955e-06
-7.6269940348114489e-08
-1.6341451324932616e-06
-6.2021934624522352e-08
-1.5838224534719005e-06
-5.0594202086288544e-08
-1.542815952512386e-06
-4.1276802373036105e-08
-1.5095202733240226e-06
-3.3566763161001534e-08
-1.4826912207533989e-06
-2.709978374013076e-08
-1.461352324696005e-06
-2.1608793688503686e-08
-1.4447304407101158e-06
-1.6893295187966229e-08
-1.4322012650550468e-06
-1.2799608422696525e-08
-1.4232621367737556e-06
-9.2080982043768495e-09
-1.4175124724111561e-06
-6.0194265262379559e-09
-1.4146385805875979e-06
-3.1426260972045009e-09
-1.414382172865243e-06
-5.2372851543965137e-10
-1.4166512729659915e-06
2.000318259184843e-09
-1.4211805371788803e-06
4.2597727972510234e-09
-1.427704521182959e-06
6.2559625960775877e-09
-1.4360706285870358e-06
8.0979664878493521e-09
-1.4461685878096052e-06
9.8282079154089956e-09
-1.4578931942370741e-06
1.1454975143404581e-08
-1.4711561922200747e-06
1.2994334269649565e-08
-1.4858887444814667e-06
1.4463102400988064e-08
-1.5020366543236525e-06
1.5877077298546796e-08
-1.5195572689916173e-06
1.7250052624080961e-08
-1.5384197706733614e-06
1.8592989483990606e-08
-1.5586043837687941e-06
1.9914944559516284e-08
-1.5800995024633084e-06
2.1224498090200713e-08
-1.6029000823919764e-06
2.2529891419858299e-08
-1.6270084853482773e-06
2.3838355050601846e-08
-1.6524347984260848e-06
2.5156182993065271e-08
-1.6791956429328397e-06
2.648958729826031e-08
-1.7073129355723878e-06
2.7845165145017601e-08
-1.7368141060475651e-06
2.9229458479787202e-08
-1.7677331577811799e-06
3.0648384287261458e-08
-1.800110698249588e-06
3.2107383045582308e-08
-1.8339931793406644e-06
3.3611997671906582e-08
-1.8694323246629282e-06
3.5168155859839054e-08
-1.9064853502680615e-06
3.6781994200872576e-08
-1.9452157341774417e-06
3.8459514642056472e-08
-1.9856936195321397e-06
4.0206703533123098e-08
-2.027995552342983e-06
4.202992055266959e-08
-2.0722040710679802e-06
4.3935879347668864e-08
-2.1184081507995822e-06
4.5931493752351999e-08
-2.1667043128588981e-06
4.8023976664231861e-08
-2.2171976618194714e-06
5.0221319829343606e-08
-2.2700021355330616e-06
5.2532537103397046e-08
-2.3252405649931698e-06
5.4967066733395106e-08
-2.3830461090522519e-06
5.7534669305901233e-08
-2.4435640238538446e-06
6.0246435669155259e-08
-2.5069522350339643e-06
6.3115414357371498e-08
-2.5733812855795543e-06
6.6155770353768101e-08
-2.6430352092821052e-06
6.9381412115837212e-08
-2.7161137482370418e-06
7.2806423107796427e-08
-2.7928340166081132e-06
7.6447084974131495e-08
-2.8734305267092604e-06
8.0322376366358277e-08
-2.958155094664548e-06
8.4452059648075638e-08
-3.047279048714971e-06
8.8855137846811929e-08
-3.1410977571085851e-06
9.3551562438785661e-08
-3.2399343203779979e-06
9.8566115594853151e-08
-3.3441407575742538e-06
1.039299477713316e-07
-3.4540983966439697e-06
1.0967785387520587e-07
-3.5702205951797073e-06
1.1584491468002532e-07
-3.6929589149910517e-06
1.2246684251872524e-07
-3.8228096255832149e-06
1.295835624358758e-07
-3.9603174519048471e-06
1.3724170829661236e-07
-4.1060773834028474e-06
1.4549351714834312e-07
-4.2607384827916118e-06
1.5439479701231634e-07
-4.4250127615512973e-06
1.6400658878657661e-07
-4.5996861539806222e-06
1.7440028092817162e-07
-4.7856266164979482e-06
1.8566061860851731e-07
-4.9837908900620971e-06
1.9788359405784251e-07
-5.19523676572303e-06
2.1117368618348166e-07
-5.4211452157663512e-06
2.2564751512678791e-07
-5.6628489788869941e-06
2.4144508087466203e-07
-5.921860519898184e-06
2.5874193636149564e-07
-6.1999001885735209e-06
2.7775565271191766e-07
-6.4989359978952145e-06
2.9874849574757793e-07
-6.8212467627463944e-06
3.2203550955545917e-07
-7.1695106044182942e-06
3.480047332570258e-07
-7.5469103051058267e-06
3.7714571594463569e-07
-7.9572438545973207e-06
4.1007020926731617e-07
-8.4050225523084043e-06
4.4750014420656237e-07
-8.8955063671615839e-06
4.901921748382459e-07
-9.4345628765345479e-06
5.3875274527280732e-07
-1.0028157394439763e-05
5.9327002766307741e-07
-1.0681209764157187e-05
6.5268130871153571e-07
-1.139553891930105e-05
7.1385695997187882e-07
-1.216676851073633e-05
7.7056243447406579e-07
-1.2980535874554494e-05
8.1276649284524451e-07
-1.3809138734857516e-05
8.2708308618243823e-07
-1.4610491188054459e-05
7.9909998173939024e-07
-1.5331256376615341e-05
7.1756911341134323e-07
-1.591468290858204e-05
5.7910260828675859e-07
-1.6311266495138084e-05
3.9099941197303198e-07
-1.648925984631947e-05
1.7105910420656349e-07
-1.6448571222564993e-05
-4.9122942138917662e-08
-1.6171169030975514e-05
-2.8760915586110357e-07
-1.5665687336851311e-05
-5.1718231380381669e-07
-1.4946021411972929e-05
-7.324356378851837e-07
-1.4041448214540549e-05
-9.1789252869675271e-07
-1.2994445481273967e-05
-1.060353118301908e-06
-1.1855411622046726e-05
-1.1519668000257708e-06
-1.0677782185890707e-05
-1.189810796302374e-06
-9.5146804230963733e-06
-1.1743211279468861e-06
-8.4168315362535234e-06
-1.1079984094078924e-06
-7.4310094188352293e-06
-9.948647288226519e-07
-6.5983614254122538e-06
-8.4059687220577663e-07
-5.9521504688932715e-06
-6.5312562503960592e-07
-5.5148187453052705e-06
-4.4330874960163806e-07
-5.2949784689674924e-06
-2.2500346076118941e-07
-5.2835974527271373e-06
-1.5898623677070788e-08
-5.5146034699538136e-06
2.2677761346721834e-07
-5.9676666772681924e-06
4.4900985773371082e-07
-6.587092596915324e-06
6.154487309237444e-07
-7.3041123991591065e-06
7.1299449174130886e-07
-8.057278199444944e-06
7.489549609823952e-07
-8.8080288055847886e-06
7.4622441083896494e-07
-9.5420185062560499e-06
7.2905074848284202e-07
-1.0270733270339457e-05
7.2331785615733436e-07
-1.1023954168266697e-05
7.4737681870163022e-07
-1.1834945436226024e-05
8.0474638914217843e-07
-1.2725206149535357e-05
8.8366706690043601e-07
-1.3694681188011362e-05
9.6258220657473e-07
-1.472063149687151e-05
1.0188275080005113e-06
-1.5764443801687129e-05
1.0365830168281142e-06
-1.6782219533666165e-05
1.0106377255387092e-06
-1.7734307841873602e-05
9.452993541517331e-07
-1.8590967816797156e-05
8.5049303395871909e-07
-1.9334082521262195e-05
7.3780522259388428e-07
-1.9956373353868424e-05
6.1799502751594186e-07
-2.0459584385262164e-05
4.999802857498603e-07
-2.0852464033069547e-05
3.90654200162745e-07
-2.114889948761015e-05
2.9506075489524376e-07
-2.1366339131617576e-05
2.1670929461370713e-07
-2.1524552155035313e-05
1.5792551801310202e-07
-2.1644705359005035e-05
1.2014414910946853e-07
-2.1748745617799733e-05
1.0418736239754956e-07
-2.1859173328992244e-05
1.1064355759834973e-07
-2.1999038940809985e-05
1.4009181501611152e-07
-2.2189435009510181e-05
1.9060124571813803e-07
-2.2450659405973943e-05
2.614002390739182e-07
-2.2802396144367102e-05
3.5188724593415957e-07
-2.3262798690392884e-05
4.6052604164943937e-07
-2.384811867013041e-05
5.8540808097105395e-07
-2.4572471304620881e-05
7.2439628815916467e-07
-2.5447619688978851e-05
8.7514413001222447e-07
-2.6482773608554747e-05
1.0351016517906432e-06
-2.7684415057351184e-05
1.2015391727559016e-06
-2.9056165314336948e-05
1.3715983456017036e-06
-3.0598727308516548e-05
1.5423691583393601e-06
-3.2309933869168294e-05
1.7109852920448648e-06
-3.4184902616210402e-05
1.8747242141776624e-06
-3.6216273759720358e-05
2.0310993410230676e-06
-3.8394510021095539e-05
2.1779304077648011e-06
-4.0708241023917598e-05
2.3133914703987377e-06
-4.3144639905813985e-05
2.4360360476676174e-06
-4.5689811939665095e-05
2.5447986416247819e-06
-4.8329157390272667e-05
2.6389676357164684e-06
-5.1047662374645985e-05
2.7181226394338862e-06
-5.3830101864704176e-05
2.7820528647544803e-06
-5.6661101113370469e-05
2.8306130589365459e-06
-5.9525078512425833e-05
2.8635973222392053e-06
-6.2406039896454601e-05
2.880589272877173e-06
-6.5287183408084781e-05
2.8807772790969745e-06
-6.8150290421187942e-05
2.8627450443916173e-06
-7.0974864372361029e-05
2.8242168945256569e-06
-7.373695274363938e-05
2.7617374882110948e-06
-7.6407577765122856e-05
2.6702807045991796e-06
-7.8950669968243855e-05
2.5427548189466866e-06
-8.1320227185667293e-05
2.3692260844219294e-06
-8.3456091532284338e-05
2.1355382255308832e-06
-8.5278026151976532e-05
1.821613472526258e-06
-8.6680743060102601e-05
1.4024023913187065e-06
-8.7533842374062448e-05
8.5278984420121449e-07
-8.7630291605600668e-05
9.6140868346567644e-08
-8.6762953986244039e-05
-8.6764490806206371e-07
-8.4628792876063839e-05
-2.1344704542051029e-06
-8.0921642848347911e-05
-3.7074608463196712e-06
-7.5325947308309258e-05
-5.5960114659787583e-06
-6.7534101136972841e-05
-7.7921678009004492e-06
-5.7295686587051264e-05
-1.0238740170462994e-05
-4.4511794203163807e-05
-1.2784224584337775e-05
-2.9433431306693242e-05
-1.5078703989350149e-05
-1.3129791671949561e-05
-1.6303990609007176e-05
1.5178123053134521e-06
-1.4647977583334016e-05
6.8465649468059336e-06
-5.3290265745085706e-06
6.8462775652206638e-06
-7.3750243623427982e-06
1.6444973676894144e-05
-1.0087301776796879e-05
3.2486383788808925e-06
-9.9898141023735493e-06
-1.8024191234966024e-06
-9.1048888180362824e-06
-2.5821007534002623e-06
-8.1480399410434423e-06
-2.2451125889572512e-06
-7.3080385367272017e-06
-1.7532205376963719e-06
-6.6129352265513002e-06
-1.3367489470266668e-06
-6.0484298228011131e-06
-1.0227719048100262e-06
-5.5908936537461232e-06
-7.9230696140159586e-07
-5.2186223453733733e-06
-6.2268230849383617e-07
-4.9139430696672603e-06
-4.9613895896452528e-07
-4.6630357053610557e-06
-4.0009956432035119e-07
-4.4552284478214709e-06
-3.2589746328370689e-07
-4.2822961287098763e-06
-2.6756846059750761e-07
-4.137869348338421e-06
-2.2096821804116516e-07
-4.0169832501643124e-06
-1.8317833157296205e-07
-3.9157386297681088e-06
-1.5211053979713987e-07
-3.8310401192930749e-06
-1.2624587814244337e-07
-3.7604138850229858e-06
-1.0446344765899463e-07
-3.7018628892321752e-06
-8.592183757236258e-08
-3.6537598552854131e-06
-6.9980371017349793e-08
-3.6147749137153533e-06
-5.6146423869142298e-08
-3.5838103003588408e-06
-4.4033096653973498e-08
-3.5599546284061357e-06
-3.3331009651520004e-08
-3.5424517978027512e-06
-2.3789073783935202e-08
-3.5306669200158977e-06
-1.5195013267510073e-08
-3.5241015143922335e-06
-7.3554305379327429e-09
-3.5223275366116371e-06
-3.8726456400494978e-11
-3.5250976837454458e-06
6.7638928773059459e-09
-3.5321053378877068e-06
1.2996235818815168e-08
-3.5430100970274615e-06
1.8735174667787006e-08
-3.5575144043741209e-06
2.4064871769124464e-08
-3.5753810260315855e-06
2.9052974831380017e-08
-3.5964165689857879e-06
3.3760311887292637e-08
-3.6204637754524468e-06
3.8240933745467761e-08
-3.6473958163830216e-06
4.2540688572397129e-08
-3.6771120020251722e-06
4.6698193102717916e-08
-3.7095348547959601e-06
5.0747195136193915e-08
-3.7446071157832901e-06
5.4717825856031244e-08
-3.7822888410191174e-06
5.8636554975936209e-08
-3.8225554703837043e-06
6.252662568321891e-08
-3.8653970444595503e-06
6.6409247511608924e-08
-3.9108170488677597e-06
7.0304565658296421e-08
-3.9588309885297474e-06
7.4231811768202121e-08
-4.009465763402969e-06
7.8209046385528029e-08
-4.0627596300484085e-06
8.2253363039740015e-08
-4.1187624114554229e-06
8.6381393391545288e-08
-4.1775349955194779e-06
9.0609708812708461e-08
-4.2391487739464378e-06
9.495501897642687e-08
-4.3036857084884807e-06
9.9434088894997237e-08
-4.3712387398684262e-06
1.0406385068935816e-07
-4.4419123080350426e-06
1.0886156440094365e-07
-4.515822690483073e-06
1.1384495151863412e-07
-4.5930983539120609e-06
1.1903262798777928e-07
-4.6738801947441525e-06
1.2444421709044426e-07
-4.7583220518673908e-06
1.301001521428124e-07
-4.8465918100390491e-06
1.3602162038272882e-07
-4.9388729557989e-06
1.4223103484223862e-07
-5.0353657914198982e-06
1.4875316449379484e-07
-5.136287566402069e-06
1.5561540885545013e-07
-5.2418732108945919e-06
1.6284696310016069e-07
-5.3523777291031184e-06
1.704787305792307e-07
-5.4680788668547685e-06
1.785444575192452e-07
-5.5892784029219363e-06
1.8708177717666925e-07
-5.7163027434471878e-06
1.9613153608349162e-07
-5.8495053052180624e-06
2.0573638358872342e-07
-5.9892706769513623e-06
2.1594151383777183e-07
-6.1360183859265078e-06
2.2679726826106861e-07
-6.2902047111788775e-06
2.3836071243745801e-07
-6.4523240783319687e-06
2.5069460450206115e-07
-6.6229133925348776e-06
2.6386550451901096e-07
-6.8025590415544736e-06
2.7794472034896167e-07
-6.9919038136403994e-06
2.930123814827522e-07
-7.1916519866574062e-06
3.0916070604760629e-07
-7.4025733706032042e-06
3.2649388629494166e-07
-7.6255099156540498e-06
3.4512632920540331e-07
-7.8613864195673052e-06
3.6518285275480193e-07
-8.1112229379202598e-06
3.8680215143427969e-07
-8.3761463649058494e-06
4.1014095990927232e-07
-8.6574014487136834e-06
4.3537589743003171e-07
-8.956365444321997e-06
4.6270421374500599e-07
-9.2745701020991904e-06
4.9234804417840942e-07
-9.613729134487658e-06
5.2456384960147976e-07
-9.9757668898624997e-06
5.5965331411508358e-07
-1.03628489700564e-05
5.9797139138570494e-07
-1.0777422921557352e-05
6.399328214796944e-07
-1.1222278159916918e-05
6.8602515241884186e-07
-1.1700629000970561e-05
7.3683637511657482e-07
-1.221622287505562e-05
7.9309820187770879e-07
-1.27734823352044e-05
8.5574181370902086e-07
-1.3377702604284249e-05
9.2596779562400332e-07
-1.4035336913399945e-05
1.0053406187727023e-06
-1.4754397537186056e-05
1.0959147838245543e-06
-1.5544972752855871e-05
1.2003662313967322e-06
-1.641978445698316e-05
1.3220305277213363e-06
-1.7394541190706418e-05
1.4646331452431647e-06
-1.8487538587781884e-05
1.6313470160756754e-06
-1.9717577984538707e-05
1.8227258030327518e-06
-2.1099111004780457e-05
2.0332850052410112e-06
-2.2634131334508563e-05
2.2473376255536449e-06
-2.4302142503567756e-05
2.436051132549677e-06
-2.60519568134101e-05
2.558618979463379e-06
-2.7800207798689498e-05
2.5694728308805031e-06
-2.9439512822223275e-05
2.4302963525193237e-06
-3.0854750698394418e-05
2.1222994640526467e-06
-3.1941949430813717e-05
1.6534697684858873e-06
-3.2623889725619978e-05
1.0580281270774859e-06
-3.2858853595443809e-05
3.8930642569843937e-07
-3.2630973815958967e-05
-2.9543042726130575e-07
-3.1979270924204735e-05
-9.5865906962252146e-07
-3.0958876900349762e-05
-1.5565413156193137e-06
-2.9657085873520897e-05
-2.0518396481207321e-06
-2.816830443121042e-05
-2.4223656448092906e-06
-2.6580186520246432e-05
-2.6620103321501174e-06
-2.4968165949647188e-05
-2.7753708182770848e-06
-2.3395440716984342e-05
-2.7718868464683046e-06
-2.1915359654373597e-05
-2.661900232041117e-06
-2.0574025258625066e-05
-2.4551801016851187e-06
-1.9411929834314126e-05
-2.1613609418099501e-06
-1.8464503004103818e-05
-1.7911694394451248e-06
-1.7762520550684799e-05
-1.3571717334805639e-06
-1.7335003288317826e-05
-8.7198712980873369e-07
-1.7229428292983212e-05
-3.3107596767959879e-07
-1.7538324266759928e-05
2.9267978075048887e-07
-1.8280225160799793e-05
9.6830241975323241e-07
-1.9436886321060729e-05
1.6049781341264251e-06
-2.0974377797502286e-05
2.1515404995697657e-06
-2.2848545059325506e-05
2.5846941417763902e-06
-2.5008035715055742e-05
2.9047007604291845e-06
-2.7395660355076133e-05
3.1288620672231703e-06
-2.99542497256019e-05
3.281700071906414e-06
-3.2623118292027509e-05
3.3857544320372226e-06
-3.5336471336381744e-05
3.4542810112555184e-06
-3.8027175085550435e-05
3.4893423692339874e-06
-4.0634176849246569e-05
3.4851050715714793e-06
-4.3108814897213342e-05
3.4322817257092286e-06
-4.5416548097596159e-05
3.3222627011700059e-06
-4.7534974541804449e-05
3.1513461786407345e-06
-4.9450285848953573e-05
2.9229159299302294e-06
-5.1154668944052968e-05
2.6472759397795241e-06
-5.2645607050686948e-05
2.3396314117131053e-06
-5.3926263053448793e-05
2.0172120513898932e-06
-5.5005905520023052e-05
1.6968423702862687e-06
-5.5899929924122184e-05
1.3935450860521075e-06
-5.6629273062852883e-05
1.1197603152086325e-06
-5.7219292696643468e-05
8.8497519304475892e-07
-5.7698346220951562e-05
6.9571574400605671e-07
-5.8096380324486078e-05
5.5591311414083074e-07
-5.8443664968634345e-05
4.6734592457446198e-07
-5.8769740593816442e-05
4.301315792603808e-07
-5.9102538801634539e-05
4.4326865650685564e-07
-5.9467611170802476e-05
5.0495413916274056e-07
-5.9889348611799071e-05
6.1208716653780595e-07
-6.0389247863672418e-05
7.6099979772337334e-07
-6.0985366732171269e-05
9.476632305011595e-07
-6.1692726713233581e-05
1.167512921149661e-06
-6.2523167097778496e-05
1.4154602494928219e-06
-6.3485181501739751e-05
1.6860162637008671e-06
-6.4583850917407677e-05
1.9734151717344035e-06
-6.5820868371377629e-05
2.2717200932145527e-06
-6.7194654570480779e-05
2.5749273094680301e-06
-6.8700545965215355e-05
2.8770877836419288e-06
-7.033103526211666e-05
3.1724453160703617e-06
-7.207605439119163e-05
3.4555787115961875e-06
-7.3923295294346867e-05
3.721536992626495e-06
-7.5858569622205542e-05
3.9659588406107196e-06
-7.7866199396486982e-05
4.1851686433803441e-06
-7.9929415658952556e-05
4.3762385833052059e-06
-8.2030741797819499e-05
4.5370089291633618e-06
-8.4152337631823666e-05
4.6660545108203332e-06
-8.6276289833509811e-05
4.7625976421438191e-06
-8.8384840445368722e-05
4.826374142663035e-06
-9.0460502381012521e-05
4.8574379358498031e-06
-9.2486090709350752e-05
4.8559402699022763e-06
-9.4444620441850856e-05
4.8218760084618377e-06
-9.6319037895978711e-05
4.7547662056569824e-06
-9.8091794216800162e-05
4.6533076849873256e-06
-9.9744236069889534e-05
4.5149756658514969e-06
-0.0001012557784013659
4.3355572082199044e-06
-0.00010260279620164868
4.1085581344871396e-06
-0.00010375716267125429
3.8244555163212732e-06
-0.00010468434262279436
3.4697488222003481e-06
-0.00010534088108243686
3.0255804133009401e-06
-0.00010567121228073207
2.4656841210772869e-06
-0.00010560333593983817
1.7535518232410629e-06
-0.00010503823840364841
8.3712065809918637e-07
-0.00010384399990441154
-3.4163360698413876e-07
-0.00010193999557347032
-1.8080679069676275e-06
-9.9162161332643896e-05
-3.6457020425894236e-06
-9.5370605542678951e-05
-5.9262590277985802e-06
-9.0342424294613533e-05
-8.7358861154455158e-06
-8.3807895197410075e-05
-1.2130792281427993e-05
-7.5488934552666123e-05
-1.6111385452056702e-05
-6.5154949932049464e-05
-2.0572994543416713e-05
-5.2725142746060138e-05
-2.5214319608019154e-05
-3.8449813120889621e-05
-2.9354336331359316e-05
-2.3193940696943386e-05
-3.1560183419819842e-05
-8.9020264358672558e-06
-2.8940229093647252e-05
1.630784248001262e-06
-1.586218301353033e-05
8.476765497247279e-06
-5.9531048130890471e-06
2.2397784921597156e-05
-8.9902347943908597e-06
6.2855136317857037e-06
-9.7219748279573197e-06
-1.0709424352830046e-06
-9.5394258147594526e-06
-2.7649218731117906e-06
-9.0660254679531817e-06
-2.7187872579925904e-06
-8.5368941388289438e-06
-2.282624341838683e-06
-8.0341990110776839e-06
-1.8397153802046858e-06
-7.5838015467308052e-06
-1.4734406566767465e-06
-7.1903541263377244e-06
-1.1860263876152924e-06
-6.8506691521629702e-06
-9.6264040457424549e-07
-6.5589771510350037e-06
-7.8810320828026172e-07
-6.3090609916535214e-06
-6.50288168440089e-07
-6.095096289208104e-06
-5.4013337256633667e-07
-5.9119471324186752e-06
-4.5098850978688957e-07
-5.7552134068654018e-06
-3.7797340436111355e-07
-5.6211793046936174e-06
-3.1748275269278326e-07
-5.5067324698193689e-06
-2.6682802527153351e-07
-5.4092689208339488e-06
-2.2398013391694702e-07
-5.3266116931405608e-06
-1.8739111741397252e-07
-5.25693658523188e-06
-1.5586771459492968e-07
-5.198710327175178e-06
-1.2847745065693142e-07
-5.1506411346273547e-06
-1.0448527827647572e-07
-5.1116357889723728e-06
-8.3306557105660783e-08
-5.080767639889995e-06
-6.4467632581537068e-08
-5.0572470115681016e-06
-4.7578567890148343e-08
-5.0403950700859588e-06
-3.2314055573783819e-08
-5.0296283859605761e-06
-1.8388819741857546e-08
-5.0244065863656612e-06
-5.5289660281974962e-09
-5.0243933393715961e-06
6.4826426843719455e-09
-5.0293217585615488e-06
1.7658645294781235e-08
-5.0388971840668429e-06
2.804386898412121e-08
-5.0528381452000267e-06
3.7736781050807129e-08
-5.0708934275732761e-06
4.6839097580597736e-08
-5.0928501508069799e-06
5.5449102916536906e-08
-5.1185318129791624e-06
6.3654148971812868e-08
-5.1477922955449342e-06
7.1531093869362933e-08
-5.1805116335057362e-06
7.9147296076720356e-08
-5.2165950455247757e-06
8.656161883367657e-08
-5.2559712715501968e-06
9.3825602355547302e-08
-5.2985892094460904e-06
1.0098511193317057e-07
-5.3444150638256777e-06
1.0808191189836064e-07
-5.3934314863723929e-06
1.1515470459045547e-07
-5.4456371977230885e-06
1.2223942748746834e-07
-5.5010457424385408e-06
1.2936960944046829e-07
-5.5596844032497576e-06
1.3657692936642881e-07
-5.6215937324862149e-06
1.438919824709691e-07
-5.6868277636776919e-06
1.5134489647331788e-07
-5.7554538917306802e-06
1.5896541191678736e-07
-5.8275524864616674e-06
1.6678308768757999e-07
-5.9032169400255437e-06
1.7482762552655091e-07
-5.9825540119764488e-06
1.8312933923083541e-07
-6.0656843375198449e-06
1.9171961923073783e-07
-6.1527427436702573e-06
2.0063080427939657e-07
-6.2438788692338912e-06
2.0989625752009588e-07
-6.3392580539303893e-06
2.1955083251496462e-07
-6.4390619980709918e-06
2.29631255210546e-07
-6.5434894362644779e-06
2.4017638859417349e-07
-6.6527574700450852e-06
2.5122727323652947e-07
-6.7671035732976399e-06
2.6282787855797682e-07
-6.8867869473763241e-06
2.7502634803385367e-07
-7.0120890105698896e-06
2.8787513312455835e-07
-7.1433147056064724e-06
3.0143046286546015e-07
-7.2807957171632294e-06
3.1575252890662385e-07
-7.42489389263482e-06
3.3090696691422939e-07
-7.5760030152975351e-06
3.4696625285599175e-07
-7.7345503963810569e-06
3.6400911186059913e-07
-7.9010003398503973e-06
3.8211957320068659e-07
-8.0758596391531011e-06
4.0138831219518867e-07
-8.2596830614700569e-06
4.2191585666545535e-07
-8.4530769049371645e-06
4.4381524956808878e-07
-8.6567023211889052e-06
4.6721220171502355e-07
-8.8712810545103858e-06
4.9224403411290112e-07
-9.0976041515733188e-06
5.1906081624484439e-07
-9.3365418798533258e-06
5.4782943499369534e-07
-9.5890525547959584e-06
5.787379998506943e-07
-9.8561912729197934e-06
6.1199816282150933e-07
-1.0139121675722702e-05
6.4784618148068144e-07
-1.0439132177576777e-05
6.8654589902406809e-07
-1.0757655523043806e-05
7.283952080172553e-07
-1.1096289205651559e-05
7.7373403930618983e-07
-1.145681702967916e-05
8.2295101767492261e-07
-1.1841236909493549e-05
8.7648965254448383e-07
-1.2251799745407256e-05
9.3485927965078095e-07
-1.2691059393425703e-05
9.986545772958353e-07
-1.3161931706581832e-05
1.0685821017360075e-06
-1.3667765513995873e-05
1.1454908221981073e-06
-1.4212436953238685e-05
1.2304090987244417e-06
-1.4800484302288791e-05
1.3245993760971859e-06
-1.5437301798543148e-05
1.4296470874427942e-06
-1.6129413917512703e-05
1.5475984262139722e-06
-1.6884861707883725e-05
1.681157604911017e-06
-1.7713742949251404e-05
1.8339472604734946e-06
-1.8628928497401467e-05
2.010803993331382e-06
-1.964687230011534e-05
2.2179847038426854e-06
-2.0788181324729203e-05
2.4629537927692855e-06
-2.2077188775185163e-05
2.7531141926965344e-06
-2.3539282076171817e-05
3.0926100716246127e-06
-2.519458380239792e-05
3.4765976244300451e-06
-2.7047507886135905e-05
3.8837098413821722e-06
-2.9074188597570527e-05
4.2698109539604426e-06
-3.1212805370960946e-05
4.5680162798809969e-06
-3.3362745954058021e-05
4.6987808062639421e-06
-3.5395482772944935e-05
4.5888574439031287e-06
-3.7174547985217445e-05
4.1923498888015534e-06
-3.8578096381204391e-05
3.5054967113141397e-06
-3.9517755105697345e-05
2.5701240545857084e-06
-3.9950193475445756e-05
1.4657473897296505e-06
-3.98787261530733e-05
2.924709287019442e-07
-3.9346501177622975e-05
-8.525462734372595e-07
-3.8450295477199646e-05
-1.8773964684703037e-06
-3.7308331882459377e-05
-2.7178511137244718e-06
-3.6033003362858662e-05
-3.3430731355276463e-06
-3.4714534621352512e-05
-3.7534471722239305e-06
-3.3420825765355673e-05
-3.9654089530109318e-06
-3.2202984246435094e-05
-4.0004241155668533e-06
-3.1102020443043052e-05
-3.8780069071976354e-06
-3.0154574399532766e-05
-3.6127992829672507e-06
-2.9397333248357884e-05
-3.2144477654689793e-06
-2.8870713611550077e-05
-2.6888049313969677e-06
-2.8622975440788104e-05
-2.0387235928296837e-06
-2.8717754633558451e-05
-1.2613930497993814e-06
-2.9263905974521082e-05
-3.242784603232281e-07
-3.0359012236421764e-05
7.6571157585964674e-07
-3.1940000961356099e-05
1.8755956232643931e-06
-3.3875344321989496e-05
2.9055277542446833e-06
-3.6102954527006441e-05
3.8336643177290356e-06
-3.8589419602227482e-05
4.6377865269545455e-06
-4.1305436857660871e-05
5.2990639858644614e-06
-4.4212529071435042e-05
5.8089202803800546e-06
-4.7257760729770984e-05
6.1704349146835679e-06
-5.0375470484178775e-05
6.3954911160766094e-06
-5.3492964693738807e-05
6.4995321848148381e-06
-5.6538549039494891e-05
6.4966527323126314e-06
-5.9448897895940871e-05
6.3971090900334043e-06
-6.2173264521019173e-05
6.2075277259455809e-06
-6.4675019864402576e-05
5.9326866157266672e-06
-6.693160698672694e-05
5.5780300004175154e-06
-6.8932785423092744e-05
5.1521574784659144e-06
-7.0678132330818561e-05
4.6682487649768881e-06
-7.2174717946898916e-05
4.1440853473990848e-06
-7.3435510549787781e-05
3.6007737005759623e-06
-7.4478241376537939e-05
3.0603224895666001e-06
-7.5324390907457173e-05
2.5433222079367808e-06
-7.5998543170183934e-05
2.0679156072743435e-06
-7.6527704307640293e-05
1.6489862474750319e-06
-7.6940304938033936e-05
1.2974696439338642e-06
-7.7265066904125428e-05
1.0202082320961368e-06
-7.7529963960429351e-05
8.203944269362988e-07
-7.7761430045477368e-05
6.982648055335996e-07
-7.7983775411636066e-05
6.5181201869020027e-07
-7.8218808743831116e-05
6.7754173468101476e-07
-7.8485633613635861e-05
7.7095367307497257e-07
-7.8800992959088113e-05
9.2658296524228476e-07
-7.9179033482853529e-05
1.1381536371731816e-06
-7.963104501996128e-05
1.3987722318845855e-06
-8.0165399070840991e-05
1.7009581202678852e-06
-8.0787547386655423e-05
2.0367053668748848e-06
-8.1500034792053206e-05
2.397616812762088e-06
-8.2302551173797045e-05
2.775068978701457e-06
-8.3192042215164604e-05
3.1603819973438357e-06
-8.4162887480334906e-05
3.5449897134539243e-06
-8.520714439953817e-05
3.9206198576105038e-06
-8.6314847532164025e-05
4.2794857353925437e-06
-8.7474349491100458e-05
4.6144737494018544e-06
-8.8672683674502367e-05
4.9193123490591909e-06
-8.9895940298585176e-05
5.1887052742349452e-06
-9.1129646817614593e-05
5.4184216127972618e-06
-9.2359134460717437e-05
5.605335247921931e-06
-9.3569881489411898e-05
5.7474246421183073e-06
-9.4747806027105553e-05
5.843698953393941e-06
-9.5879500055881734e-05
5.8940578155925614e-06
-9.6952397384465343e-05
5.899084165237093e-06
-9.7954871901415261e-05
5.8597709642027224e-06
-9.887624028798632e-05
5.7772064618738576e-06
-9.970666210577484e-05
5.6522256248134409e-06
-0.00010043695232820088
5.4850072752746371e-06
-0.0001010582705304013
5.274596287216317e-06
-0.00010156168295118215
5.0183729890681288e-06
-0.00010193761490724084
4.7114819747202657e-06
-0.00010217515643119847
4.346094909297344e-06
-0.00010226112562060752
3.9104177137657831e-06
-0.00010217882861957524
3.3874380130770339e-06
-0.00010190634256807453
2.7530710649210336e-06
-0.00010141421279426599
1.9735201285321891e-06
-0.00010066236489136024
1.0016572407604755e-06
-9.9591067099332169e-05
-2.3423991531342037e-07
-9.8191642397960492e-05
-1.7411664166765118e-06
-9.6366750065610959e-05
-3.6330870378933397e-06
-9.3980738797681416e-05
-6.0318544270692803e-06
-9.084663359906669e-05
-9.0605230089001838e-06
-8.6742415534181951e-05
-1.2840281301905645e-05
-8.1410783032073448e-05
-1.7462614846891079e-05
-7.4577141525334327e-05
-2.294523018297724e-05
-6.5993571671339718e-05
-2.915678412173725e-05
-5.5523731394357368e-05
-3.5684394774980419e-05
-4.3282786903721522e-05
-4.1595536634864242e-05
-2.9822296676471953e-05
-4.5020955831810042e-05
-1.6246934612491657e-05
-4.2515900718474472e-05
-3.563543687235911e-06
-2.8545908103630418e-05
4.9129007364227551e-06
-5.0577476911341685e-06
2.7455238961338707e-05
-8.0045964594550671e-06
9.2321021907001725e-06
-9.0989788974569781e-06
2.3177701865835184e-08
-9.2943301937736746e-06
-2.5698393958504654e-06
-9.1425104701356491e-06
-2.8708800511769491e-06
-8.8645702679659958e-06
-2.5608381539888385e-06
-8.5508428933630773e-06
-2.1537154784758617e-06
-8.2399403584271398e-06
-1.7846149624852051e-06
-7.9484558222853538e-06
-1.4777818581952543e-06
-7.6828900271928e-06
-1.2284778095898183e-06
-7.4448781527541143e-06
-1.0263864164228898e-06
-7.2337012196257763e-06
-8.6173669654844289e-07
-7.0475626622071601e-06
-7.2654318285191513e-07
-6.8842582331049439e-06
-6.1456361479345531e-07
-6.7415218352446962e-06
-5.2098089185092792e-07
-6.6171953919421817e-06
-4.4208039402260445e-07
-6.5093051635466224e-06
-3.74988732952239e-07
-6.4160867671001102e-06
-3.1746883579147781e-07
-6.3359858545086074e-06
-2.6776357748401354e-07
-6.2676395677256328e-06
-2.2448400150057346e-07
-6.2098625261117552e-06
-1.8652382516679284e-07
-6.1616268175429581e-06
-1.5299244201859993e-07
-6.122036177471325e-06
-1.2316725833987122e-07
-6.0903128990591604e-06
-9.645830029922301e-08
-6.0657816559659128e-06