/*--------------------------------*- C++ -*----------------------------------*\
  =========                 |
  \\      /  F ield         | OpenFOAM: The Open Source CFD Toolbox
   \\    /   O peration     | Website:  https://openfoam.org
    \\  /    A nd           | Version:  12
     \\/     M anipulation  |
\*---------------------------------------------------------------------------*/
FoamFile
{
    format      ascii;
    class       volScalarField;
    location    "10";
    object      rho;
}
// * * * * * * * * * * * * * * * * * * * * * * * * * * * * * * * * * * * * * //

dimensions      [1 -3 0 0 0 0 0];

internalField   nonuniform List<scalar> 
40000
(
1.168591975716289
1.1852130739959958
1.1888226359284308
1.189681284961021
1.1899079481089336
1.1899735529561426
1.1899940337512454
1.1900008295126518
1.1900032013789517
1.1900040681753321
1.1900044009804196
1.1900045372710095
1.1900045986117676
1.1900046301525029
1.1900046491391223
1.1900046623562976
1.190004672575534
1.1900046809944151
1.190004688177271
1.1900046944240774
1.1900046999177385
1.1900047047843065
1.1900047091186226
1.19000471299606
1.1900047164784755
1.1900047196176995
1.190004722457618
1.1900047250341279
1.1900047273768135
1.1900047295121174
1.1900047314633524
1.1900047332506094
1.1900047348914375
1.1900047364013426
1.1900047377940932
1.1900047390819308
1.1900047402757625
1.1900047413853265
1.1900047424193243
1.1900047433855629
1.1900047442910648
1.1900047451421667
1.1900047459445977
1.1900047467035622
1.1900047474238178
1.1900047481097404
1.190004748765378
1.1900047493944921
1.1900047500006101
1.1900047505870597
1.1900047511570075
1.1900047517134729
1.1900047522593489
1.1900047527974238
1.1900047533303952
1.1900047538608887
1.1900047543914714
1.1900047549246662
1.1900047554629953
1.1900047560089921
1.1900047565652199
1.1900047571342784
1.1900047577188324
1.1900047583216424
1.1900047589455636
1.1900047595935264
1.1900047602685557
1.1900047609738296
1.1900047617127387
1.1900047624888672
1.1900047633059394
1.1900047641678806
1.1900047650789976
1.1900047660440733
1.1900047670682721
1.1900047681570138
1.1900047693160525
1.1900047705517365
1.1900047718711837
1.1900047732822412
1.1900047747934208
1.19000477641406
1.1900047781547014
1.1900047800273736
1.1900047820456181
1.1900047842246764
1.1900047865827053
1.1900047891446781
1.1900047919544121
1.1900047951142483
1.1900047989159361
1.1900048042528941
1.1900048138437607
1.1900048356392845
1.1900048916789343
1.1900050394449928
1.1900054192071443
1.1900063494394724
1.1900084987823978
1.190013156310342
1.1900225861330602
1.1900403795175694
1.1900716313024848
1.1901227349870747
1.190200690538854
1.1903120637876852
1.1904620365799712
1.1906542508883535
1.1908925749815744
1.1911860151094835
1.1915334577949572
1.1919240145410317
1.1923426090120948
1.1927727221156423
1.1931990922832398
1.1936094647225397
1.193995182675418
1.1943509586079299
1.1946742707343132
1.1949646950303521
1.1952233579438789
1.1954525668136315
1.1956556282313822
1.1958370859060539
1.1960057969433171
1.1961700801300363
1.196333192446384
1.1964993615362443
1.1966735770408454
1.1968609859202868
1.1970659718135499
1.1972913164670289
1.1975378977096705
1.1978050638157502
1.1980913627702447
1.1983950626187605
1.1987140564009606
1.1990451297406017
1.1993829456631762
1.1997193294209105
1.2000434386761427
1.2003431068188077
1.2006071001691014
1.2008275083986142
1.201001340987581
1.2011307540581959
1.2012219561879331
1.2012833565111969
1.2013236763873458
1.2013505617392717
1.2013698962844439
1.2013857250985043
1.2014005540206982
1.2014157883296201
1.2014321464871447
1.2014499710406426
1.2014694270393724
1.2014906092777871
1.2015135876687402
1.2015384164453609
1.2015651257634381
1.2015937079981129
1.2016241065381732
1.2016562115449962
1.2016898642709652
1.2017248690113189
1.2017610099329608
1.2017980692393164
1.2018358434256067
1.2018741554283605
1.201912861788585
1.2019518550958677
1.2019910627182846
1.2020304430962487
1.2020699808438338
1.2021096816391894
1.2021495675587652
1.2021896732464039
1.2022300430730015
1.2022707293013146
1.2023117912201784
1.2023532952128264
1.2023953157616061
1.2024379375251593
1.2024812588894485
1.202525397437918
1.2025704965314181
1.2026167314175131
1.2026641702595027
1.2027277553816162
1.202815961192125
1.20293631313018
1.2030979353424642
1.2033122620649839
1.2035938204787693
1.2039617569811492
1.2044441390960239
1.2051027345240186
1.2062982860968514
1.2078670695130485
1.1675218420312661
1.1851597690327
1.1889124764020722
1.1897349572227129
1.1899314451771903
1.1899826142219869
1.1899971055136775
1.1900015533242614
1.1900030274887403
1.1900035550679746
1.1900037608330645
1.1900038503299206
1.1900038951657561
1.1900039215742733
1.1900039396285897
1.1900039533960474
1.1900039646269205
1.1900039741438602
1.1900039823814403
1.1900039896014907
1.190003995981795
1.1900040016542623
1.1900040067224842
1.1900040112706853
1.1900040153688356
1.1900040190759502
1.1900040224422652
1.1900040255099842
1.1900040283105477
1.1900040308725419
1.1900040332230346
1.1900040353855788
1.1900040373808309
1.1900040392270563
1.1900040409404553
1.1900040425354022
1.1900040440246771
1.1900040454196747
1.1900040467305901
1.1900040479665794
1.1900040491358914
1.1900040502459892
1.1900040513036461
1.1900040523150381
1.1900040532858362
1.1900040542212833
1.1900040551262756
1.1900040560053975
1.1900040568629784
1.1900040577031248
1.1900040585297684
1.190004059346714
1.1900040601576469
1.1900040609661566
1.1900040617757548
1.1900040625899151
1.1900040634121136
1.1900040642458216
1.1900040650945309
1.1900040659617936
1.1900040668512724
1.1900040677667747
1.1900040687122193
1.1900040696916572
1.1900040707093624
1.1900040717698765
1.1900040728779724
1.1900040740385709
1.1900040752568639
1.1900040765386422
1.1900040778903185
1.1900040793185922
1.1900040808303227
1.1900040824329865
1.1900040841352979
1.1900040859472196
1.190004087879396
1.1900040899429407
1.1900040921500481
1.1900040945147798
1.1900040970531904
1.1900040997829273
1.190004102723375
1.1900041058970237
1.1900041093314992
1.1900041130622157
1.1900041171408393
1.1900041216693502
1.1900041269225206
1.1900041337570164
1.1900041449085055
1.1900041688799592
1.1900042308728178
1.1900044013973006
1.1900048654425381
1.1900060753785655
1.1900090554861043
1.1900159361340026
1.1900307471380127
1.190060335619705
1.1901149906753068
1.190208119136041
1.1903544612745018
1.1905670620091053
1.1908541395422727
1.1912173160425692
1.1916520853239063
1.1921505360557592
1.1927061907503693
1.1933103402442633
1.1939237727560217
1.1945115089499811
1.1950499072954341
1.1955265208436174
1.1959375802268002
1.1962848776199886
1.1965731231922931
1.1968081565923927
1.1969959687249365
1.197142334254973
1.1972528629680672
1.1973333659216063
1.1973906885680505
1.1974357050134592
1.1974847936939141
1.1975428908009966
1.1976233707396882
1.1977402063206957
1.1979041758641107
1.1981185761164639
1.198376997309675
1.198664331446611
1.1989615242207532
1.1992517836579939
1.1995244732515753
1.1997749613989166
1.2000018779678814
1.2002044380749528
1.200381364629955
1.2005312824515926
1.2006536643154806
1.2007495293468651
1.2008215671428151
1.200873749762011
1.2009106694969087
1.2009368545841923
1.2009562452326796
1.2009719110365715
1.2009859978946011
1.2009998359378906
1.2010141253793678
1.2010291317868282
1.2010448497015729
1.2010611346992348
1.2010777837165898
1.201094571363142
1.2011112746765806
1.2011276832134379
1.2011435998034539
1.201158837436602
1.2011732156467656
1.2011865582851446
1.2011986935817902
1.2012094565901428
1.2012186935100575
1.2012262670259175
1.2012320616553593
1.2012359881732713
1.2012379863898255
1.2012380259218671
1.2012361050143816
1.2012322478399706
1.2012265009788685
1.2012189297401275
1.2012096152586538
1.2011986528695984
1.2011861521821681
1.2011722395797717
1.2011570638301488
1.2011408057680082
1.2011236935210194
1.2011060252566608
1.201088202300709
1.2010707784233616
1.2010545372304295
1.201040609979362
1.2010306091490428
1.2010327483563075
1.2010714645284979
1.2011465853853662
1.201266669487173
1.2014449365375275
1.2016982473595106
1.2020477424782356
1.2025196900812771
1.2031464718770606
1.2039672855393189
1.2050285526735269
1.2064051684690154
1.2083099217100794
1.1662867963922761
1.184727380458402
1.1888345963000371
1.1897297793846962
1.1899353430094903
1.1899851999847939
1.1899980142120015
1.1900015346691684
1.1900025847730809
1.1900029340953757
1.1900030691335708
1.1900031325370586
1.1900031691960644
1.1900031943760785
1.1900032137421488
1.1900032296255474
1.1900032431136922
1.1900032547917376
1.1900032650221168
1.1900032740565478
1.1900032820841944
1.1900032892542902
1.1900032956880551
1.1900033014858116
1.1900033067316977
1.1900033114970856
1.1900033158431496
1.1900033198223496
1.1900033234767222
1.1900033268351755
1.190003329931649
1.1900033327958348
1.1900033354537547
1.1900033379284181
1.1900033402402441
1.1900033424073684
1.190003344445927
1.190003346370309
1.1900033481933872
1.1900033499267348
1.1900033515807926
1.1900033531650402
1.1900033546881257
1.1900033561579861
1.1900033575819515
1.1900033589668209
1.1900033603189746
1.1900033616444361
1.1900033629489493
1.1900033642380126
1.1900033655169135
1.1900033667908017
1.1900033680647131
1.1900033693436112
1.1900033706323954
1.1900033719359353
1.1900033732591531
1.1900033746070529
1.1900033759847448
1.1900033773974688
1.1900033788506255
1.1900033803498813
1.1900033819011901
1.1900033835107355
1.1900033851849665
1.1900033869307711
1.190003388755644
1.1900033906675573
1.1900033926747406
1.1900033947859643
1.1900033970111854
1.1900033993616561
1.1900034018493353
1.1900034044865602
1.1900034072867103
1.1900034102652171
1.1900034134398092
1.1900034168299456
1.190003420456579
1.1900034243430633
1.1900034285165084
1.1900034330082265
1.1900034378533835
1.1900034430921531
1.1900034487757529
1.1900034549845857
1.190003461886741
1.1900034699420063
1.1900034805986943
1.1900034985439472
1.1900035385307397
1.1900036447558144
1.19000394199135
1.1900047599190358
1.1900069084868412
1.1900122239247564
1.1900245124696827
1.1900509055464479
1.1901033103689662
1.1901991393978
1.1903602098886821
1.1906092005484281
1.190964401799866
1.1914347267938439
1.1920169075625255
1.1926955721617598
1.1934456548945027
1.19423613484569
1.1950341410600327
1.1957881899406648
1.1964571142809715
1.1970244672581813
1.1974890572434804
1.1978590830058973
1.1981469265928144
1.1983655979002752
1.1985268030819232
1.1986402233690612
1.1987135855072693
1.1987532588139751
1.1987653260379343
1.1987573382969334
1.1987415406932311
1.1987264709724499
1.1987094288161488
1.1987131492468301
1.198758237845484
1.1988540539538888
1.1989975893479583
1.1991756780822356
1.1993696913821157
1.1995610149717961
1.1997353404864264
1.1998844357850926
1.2000054672159992
1.2000990956790318
1.2001676708262428
1.2002141899121008
1.2002419859730968
1.2002547314219691
1.2002563834404911
1.2002509401172539
1.2002420844030399
1.2002328619528209
1.2002254934096239
1.2002213451645147
1.2002210263696957
1.2002245552216129
1.2002315397266428
1.2002413371590559
1.200253176848048
1.2002662440163658
1.2002797314564311
1.2002928749149355
1.2003049719521182
1.2003153860948406
1.2003235480710137
1.2003289552744276
1.2003311694044223
1.200329813110337
1.2003245667866385
1.2003151663068066
1.2003014019432077
1.2002831183096614
1.2002602149400139
1.2002326470046349
1.2002004256567937
1.2001636175780284
1.2001223434682018
1.2000767754492749
1.2000271336779602
1.1999736827095044
1.1999167283151766
1.199856615810212
1.1997937307896429
1.1997285031048837
1.1996614157096224
1.1995930197106999
1.1995239573638885
1.1994549951985831
1.1993870706450314
1.1993213566047394
1.1992593494763157
1.199202990062286
1.1991548319022971
1.1991182735615213
1.1991020766808989
1.1991294065620401
1.1991935395151596
1.1993046236752354
1.1994767298595013
1.1997281291437305
1.2000819954070396
1.2005671712066202
1.20121887210819
1.2020789646474375
1.2031945209343986
1.2046107679902374
1.206351214746431
1.2086461209106141
1.1651454961495271
1.1842222441418404
1.1886911752479969
1.1896951480920512
1.1899278484811022
1.1899835519439073
1.1899973551049627
1.1900009272547023
1.1900019139263005
1.1900022191235804
1.1900023339981727
1.1900023907434036
1.1900024269610878
1.1900024542161227
1.1900024765044901
1.1900024954578603
1.1900025118929605
1.1900025263052467
1.1900025390404054
1.190002550360886
1.1900025604755129
1.1900025695547574
1.1900025777398962
1.1900025851492841
1.1900025918829062
1.190002598025929
1.1900026036514963
1.1900026088226832
1.1900026135926101
1.1900026179980649
1.1900026220793265
1.1900026258734027
1.1900026294124755
1.1900026327249544
1.19000263583609
1.1900026387683831
1.1900026415419371
1.1900026441747598
1.1900026466830109
1.1900026490812667
1.1900026513827304
1.1900026535994244
1.1900026557423602
1.1900026578216969
1.1900026598468807
1.1900026618267274
1.1900026637695353
1.1900026656831706
1.190002667575162
1.1900026694527708
1.1900026713230203
1.190002673192758
1.1900026750687156
1.1900026769575702
1.1900026788659863
1.1900026808006274
1.1900026827682144
1.1900026847756102
1.1900026868298892
1.1900026889383775
1.1900026911086343
1.1900026933485306
1.1900026956664158
1.190002698071152
1.1900027005719707
1.1900027031785423
1.1900027059013654
1.190002708752018
1.190002711742876
1.1900027148867554
1.1900027181973858
1.1900027216904074
1.1900027253835816
1.19000272929609
1.1900027334481487
1.1900027378617608
1.1900027425620514
1.1900027475778041
1.1900027529408781
1.1900027586861328
1.1900027648530829
1.1900027714882908
1.1900027786471936
1.1900027863972935
1.1900027948326033
1.1900028041306845
1.1900028147543504
1.1900028281378081
1.190002848928148
1.1900028919098045
1.1900030020455066
1.1900033084406227
1.19000415842844
1.1900064216027191
1.1900121089894422
1.1900254781436024
1.1900546901706077
1.1901137176102567
1.1902235722933228
1.1904114175265403
1.1907064859451262
1.191133267037235
1.1917042259268242
1.1924147995283974
1.1932421833094311
1.1941476865185168
1.1950814895159023
1.1959886181418455
1.1968150836023541
1.1975135576391494
1.198074874941228
1.1985082564473633
1.1988321137850775
1.1990674809055282
1.1992338512881833
1.1993472222082664
1.1994196822730157
1.1994598986500056
1.1994740661945
1.1994670666430025
1.1994436560079242
1.1994093264192451
1.1993657290690147
1.1993210253357998
1.1992935277795043
1.1992934137076963
1.1993241868214162
1.1993825516425514
1.1994591027046291
1.1995408499439701
1.1996147757316515
1.1996708899288255
1.1997036988131411
1.1997119963294625
1.1996976685375029
1.1996643546648573
1.1996164657343751
1.1995586337739614
1.1994954246281111
1.1994311280731234
1.1993695385866447
1.1993137411330088
1.1992659621077522
1.1992275272458617
1.1991989156610323
1.1991798800865758
1.1991696060640504
1.1991668813601704
1.199170251894061
1.1991781508482986
1.1991889975467283
1.1992012653055741
1.1992135232069523
1.199224461528958
1.1992329060134295
1.1992378218814495
1.1992383126592958
1.1992336164341653
1.1992231004031513
1.1992062545796407
1.1991826856301515
1.199152111594544
1.1991143577015084
1.1990693530625711
1.199017127851159
1.1989578105422065
1.1988916248545365
1.1988188860673035
1.1987399965564407
1.1986554403874723
1.1985657773869787
1.1984716373758919
1.1983737154477547
1.1982727694914026
1.1981696210821771
1.1980651607941475
1.1979603594456796
1.1978562872599838
1.1977541429266791
1.1976552941608178
1.1975613332131161
1.1974741530699629
1.1973960501098546
1.1973298636905554
1.1972791660509423
1.1972485195666691
1.1972591776181176
1.197303067762258
1.1973891202711791
1.1975304953130343
1.1977446041157918
1.1980539293336472
1.1984868355963669
1.1990782266992117
1.1998698767215417
1.200909948469884
1.2022506418226133
1.2039432392621221
1.2060408333150001
1.2086825684179925
1.1641094152012958
1.1837083987905945
1.1885138330912532
1.1896467641779904
1.1899149143123791
1.189979834795353
1.1899959212743103
1.1900000279534575
1.1900011301332376
1.1900014578362101
1.1900015775364334
1.1900016370392992
1.1900016763722021
1.190001707061106
1.1900017328225296
1.1900017551142337
1.1900017746771037
1.1900017919854597
1.1900018073894698
1.1900018211665084
1.1900018335436886
1.1900018447101011
1.1900018548246658
1.1900018640218872
1.1900018724162662
1.1900018801058372
1.1900018871750502
1.1900018936968109
1.1900018997333603
1.190001905332116
1.190001910540659
1.1900019154035217
1.1900019199591521
1.1900019242414004
1.1900019282803644
1.1900019321029263
1.1900019357331868
1.1900019391928458
1.1900019425014852
1.1900019456768589
1.1900019487351343
1.1900019516911009
1.1900019545583587
1.1900019573494955
1.1900019600762717
1.1900019627497389
1.1900019653803438
1.1900019679780283
1.1900019705523173
1.1900019731124285
1.1900019756673397
1.1900019782258207
1.1900019807964959
1.1900019833879321
1.1900019860087254
1.190001988667553
1.1900019913731734
1.1900019941345152
1.1900019969608038
1.1900019998616314
1.1900020028469882
1.190002005927224
1.1900020091131982
1.190002012416588
1.1900020158498301
1.1900020194258925
1.1900020231584501
1.1900020270624867
1.1900020311547259
1.1900020354531655
1.1900020399764986
1.1900020447448207
1.1900020497809463
1.1900020551107457
1.1900020607625044
1.190002066766555
1.1900020731562628
1.1900020799697757
1.1900020872507489
1.1900020950478194
1.1900021034148942
1.1900021124139666
1.1900021221206358
1.1900021326347612
1.1900021441136777
1.1900021568958732
1.1900021719414191
1.1900021923100566
1.1900022278526301
1.190002309225709
1.190002527005307
1.1900031328564213
1.1900047797003355
1.1900090381135202
1.1900193826826098
1.1900428140957102
1.1900920246677302
1.1901874135133252
1.1903574916212671
1.1906359673848719
1.1910548639570258
1.1916352260579952
1.1923787566536239
1.1932635399925173
1.1942451295714389
1.1952623788326311
1.1962465625923777
1.1971322568110361
1.1978682719444902
1.1984398042893094
1.1988624336917593
1.1991619681769501
1.1993666421143037
1.1995018297895088
1.1995876463532542
1.1996385684786102
1.1996641659850875
1.199670280417062
1.1996602556026092
1.1996359978656517
1.1995990964887489
1.1995543085687719
1.1995089261373506
1.1994690915570645
1.1994388741779485
1.1994197144517191
1.1994095890580281
1.1994031271260417
1.1993927626362622
1.1993706505096369
1.1993306276957931
1.1992694625162068
1.1991870727980041
1.1990859320954099
1.1989701500126619
1.1988446346022559
1.1987145055641713
1.1985847311062565
1.1984598887955515
1.1983439747582634
1.198240237591381
1.1981510418267813
1.1980777890471208
1.1980209296721653
1.1979800300135455
1.1979538743683826
1.1979406317602241
1.1979380598568419
1.1979437085925795
1.1979550943208133
1.19796983249063
1.1979857156636289
1.1980007468910217
1.1980131557407461
1.1980214014552715
1.1980241674537813
1.1980203513519527
1.1980090530623646
1.1979895624193575
1.1979613472833657
1.1979240428239804
1.1978774423758825
1.197821489844038
1.1977562732158091
1.1976820184956776
1.1975990834226091
1.1975079504824231
1.1974092189039269
1.1973035954888473
1.1971918842698879
1.1970749754306744
1.1969538343415937
1.1968294917770566
1.196703036864136
1.1965756143224424
1.1964484274327492
1.1963227480693273
1.1961999365706784
1.196081474501278
1.1959690097782145
1.1958644159542717
1.1957698770342313
1.1956880086344051
1.1956220263632877
1.1955759954575107
1.1955613826348805
1.1955798432285574
1.1956327155417956
1.1957311263573542
1.1958904469656362
1.1961310047493077
1.1964790476105305
1.1969675411167007
1.1976366242211856
1.1985336336705799
1.1997121732186289
1.2012291833776374
1.2031388230811018
1.2054855999490268
1.2083214075603386
1.163175481176443
1.1832180899246663
1.1883401097921749
1.1895937621542023
1.1898993512910518
1.1899750290711044
1.1899940796819808
1.1899989811233562
1.1900002930611928
1.1900006766962763
1.1900008128934523
1.1900008790799894
1.1900009227096031
1.190000957067308
1.1900009862396292
1.1900010117418047
1.1900010343164686
1.1900010544380832
1.1900010724628136
1.1900010886783952
1.1900011033244493
1.1900011166032449
1.1900011286867775
1.1900011397220895
1.1900011498353895
1.190001159135454
1.190001167716402
1.1900011756597071
1.1900011830349149
1.1900011898986924
1.1900011963076667
1.1900012023128141
1.1900012079584572
1.190001213283659
1.1900012183231441
1.1900012231079882
1.1900012276661482
1.1900012320228928
1.1900012362011327
1.1900012402217384
1.1900012441038059
1.1900012478648985
1.1900012515212521
1.1900012550879591
1.1900012585791431
1.1900012620081446
1.1900012653876328
1.1900012687297066
1.1900012720459938
1.1900012753477442
1.1900012786459604
1.1900012819514354
1.1900012852748088
1.1900012886266549
1.1900012920175513
1.1900012954582344
1.190001298959628
1.1900013025328529
1.1900013061893817
1.1900013099411273
1.1900013138005903
1.1900013177808459
1.19000132189543
1.1900013261587168
1.1900013305863097
1.1900013351948795
1.1900013400018394
1.1900013450255684
1.1900013502864275
1.1900013558073221
1.1900013616129401
1.1900013677292209
1.1900013741842637
1.1900013810097061
1.1900013882412932
1.1900013959184144
1.1900014040838107
1.1900014127849279
1.1900014220762951
1.1900014320206962
1.1900014426889893
1.1900014541613586
1.1900014665338918
1.1900014799376191
1.190001494597124
1.1900015110333964
1.1900015307684337
1.1900015586559942
1.1900016101463662
1.1900017325262624
1.1900020627959642
1.1900029734505602
1.1900054083246656
1.1900115800254372
1.1900262475194685
1.1900587075082938
1.1901252501411796
1.1902510751082216
1.1904698561217286
1.1908191206556573
1.1913311507857764
1.1920217604345671
1.1928811859062631
1.1938708656445256
1.194927565273507
1.1959739297267862
1.1969330779781051
1.1977438430982583
1.1983723704656386
1.1988266252647308
1.1991376773933093
1.1993398138252731
1.1994645126478385
1.1995369350971949
1.1995750986186282
1.1995906143869419
1.1995900745611121
1.1995765244711381
1.1995507230303426
1.1995144923779124
1.1994735541613346
1.1994284217714897
1.1993797217512883
1.1993283427405497
1.1992742906272544
1.1992161068665175
1.19915073172367
1.1990739479921093
1.1989813316260534
1.1988694001016449
1.1987365358097724
1.198583373974851
1.1984126195291025
1.1982284999949082
1.1980361303055438
1.1978409780534707
1.1976484855784377
1.1974638160480058
1.1972916636857338
1.1971360870959762
1.1970003625180277
1.1968868408709488
1.1967968104552842
1.1967304784904951
1.1966869272686143
1.1966639299173785
1.1966582843394586
1.1966662314492593
1.1966838669738908
1.1967074951197834
1.1967338780909624
1.1967602439755045
1.1967841573790783
1.1968035280415843
1.1968166071516306
1.196821968617217
1.1968184816265262
1.1968052810843202
1.1967817401239897
1.196747446726051
1.1967021848285662
1.1966459194415391
1.1965787848042868
1.1965010743627362
1.1964132313281575
1.1963158387435926
1.1962096082989935
1.1960953675065529
1.1959740451898759
1.1958466556479157
1.1957142823281608
1.1955780624818138
1.1954391746524553
1.1952988311878225
1.1951582784720658
1.1950188076597144
1.1948817764441539
1.1947486439613932
1.1946210247201359
1.1945007540495272
1.1943899510468055
1.194291100620368
1.194207193966891
1.1941418929765808
1.1940997072920774
1.1940911888377914
1.1941085860207545
1.1941599975373058
1.1942581482971943
1.194420429784498
1.1946699580638998
1.1950366317427028
1.1955578282117971
1.1962785995124463
1.1972518635488396
1.1985378558190236
1.2002013628092374
1.2023041845996252
1.2048939701950345
1.2080383920549069
1.1623333460618253
1.1827541595331643
1.1881691791123881
1.1895385412961865
1.1898822352482996
1.1899695329898154
1.1899919774823502
1.1899978441046206
1.1899994268954004
1.1899998870971493
1.1900000463260469
1.1900001209762607
1.1900001691338737
1.1900002069286284
1.1900002391802669
1.1900002675780013
1.1900002928982127
1.1900003156190235
1.1900003360972289
1.1900003546235451
1.1900003714430551
1.1900003867651678
1.1900004007698868
1.1900004136126301
1.190000425427989
1.1900004363328343
1.1900004464288796
1.1900004558044548
1.1900004645346922
1.1900004726844131
1.1900004803188071
1.1900004874940062
1.1900004942594047
1.1900005006587806
1.1900005067311465
1.1900005125114976
1.1900005180314235
1.1900005233195752
1.190000528402043
1.1900005333026629
1.1900005380433323
1.1900005426442815
1.1900005471243003
1.1900005515009511
1.1900005557907054
1.1900005600091599
1.1900005641711806
1.1900005682910086
1.190000572382391
1.190000576458623
1.1900005805327138
1.1900005846174666
1.1900005887255425
1.19000059286959
1.1900005970622221
1.1900006013161986
1.1900006056446086
1.1900006100608369
1.1900006145786599
1.1900006192123105
1.190000623976708
1.1900006288876765
1.1900006339616944
1.1900006392158915
1.1900006446686573
1.1900006503401102
1.1900006562518488
1.190000662426437
1.1900006688878328
1.1900006756627093
1.1900006827809821
1.1900006902751381
1.1900006981797742
1.1900007065324889
1.1900007153755601
1.1900007247567637
1.1900007347289077
1.190000745349729
1.1900007566837534
1.1900007688053995
1.1900007818012217
1.1900007957711973
1.190000810834059
1.1900008271497839
1.190000844996856
1.1900008650365093
1.1900008892121798
1.1900009236871159
1.1900009879027875
1.1900011407512254
1.190001550953655
1.1900026717529137
1.1900056368554754
1.19001306767221
1.1900305208998314
1.1900686866008205
1.1901459971204527
1.1902904733272355
1.1905387891129187
1.1909305845593685
1.1914978222284018
1.1922520021217491
1.1931743118211786
1.194213417717106
1.1952928164276926
1.1963262513394184
1.1972369049293545
1.197974188919521
1.1985218414231344
1.1988962707412907
1.1991348003006987
1.199275646246877
1.1993506675076229
1.1993836020602413
1.1993903569994668
1.1993803900844777
1.1993584096453502
1.1993259360934363
1.1992873887839841
1.1992453775133525
1.1991964835732254
1.1991391469293711
1.1990723951868107
1.1989951427786867
1.1989058422143042
1.1988023598781685
1.1986821372593077
1.1985426448033012
1.1983820186359084
1.1981996726567963
1.1979966719584612
1.1977757568237324
1.1975410571092093
1.1972976402845059
1.1970510448696914
1.1968068911171084
1.1965705913047537
1.1963471415850313
1.196140966427371
1.195955788703392
1.1957945572610515
1.1956593660968873
1.1955510842753656
1.1954723014904596
1.1954270995829581
1.1954125864016207
1.1954234126687235
1.1954529059314762
1.1954936844002182
1.1955382565106307
1.1955829568540268
1.1956262063665288
1.1956655034180272
1.1956984644981699
1.1957230618235719
1.1957376975466203
1.1957411954294428
1.1957327579243524
1.1957119121718307
1.1956784584537119
1.1956324267436367
1.1955740427863697
1.1955037025084858
1.1954219522751621
1.195329472446045
1.1952270620390493
1.1951156229188706
1.194996142607919
1.1948696754043877
1.1947373222465383
1.194600210559279
1.1944594761370575
1.194316249842033
1.1941716520260217
1.1940267982539583
1.193882822862967
1.1937409209524619
1.1936024050168121
1.1934687965286517
1.1933419494105484
1.1932241313763354
1.1931180706970383
1.193027122190137
1.1929553964775279
1.1929106667650689
1.1928910699760442
1.1928938108783598
1.1929283334357499
1.1930088889744466
1.1931550554967105
1.1933929775989451
1.1937564200557937
1.194287158518496
1.195034631220959
1.196057288560201
1.1974236468762283
1.1992106927282324
1.2014963101032057
1.2043478043074409
1.2078494911583499
1.1615718106253106
1.1823162577836863
1.1880021266529346
1.1894822600441348
1.1898640820018302
1.1899635353709259
1.1899896803685737
1.1899966405839866
1.1899985411991831
1.1899990936979781
1.1899992806979358
1.1899993648929443
1.1899994175134332
1.1899994583668188
1.1899994932739189
1.1899995241786978
1.1899995519106947
1.1899995769514284
1.1899995996522954
1.1899996202998608
1.1899996391380316
1.1899996563775592
1.1899996722016117
1.1899996867699167
1.1899997002220735
1.1899997126802933
1.1899997242516411
1.189999735029398
1.1899997450924196
1.1899997545137633
1.189999763364703
1.1899997717054069
1.1899997795894488
1.1899997870646093
1.1899997941737148
1.1899998009553205
1.1899998074443403
1.1899998136725463
1.1899998196689892
1.1899998254603006
1.1899998310710205
1.1899998365239095
1.1899998418401605
1.1899998470396811
1.1899998521412185
1.1899998571625479
1.1899998621206545
1.1899998670318357
1.1899998719118943
1.1899998767761482
1.1899998816395609
1.1899998865168981
1.1899998914227718
1.1899998963718388
1.1899999013787881
1.189999906458407
1.1899999116258564
1.1899999168967443
1.1899999222871749
1.189999927813753
1.1899999334937192
1.1899999393453637
1.1899999453881274
1.189999951642279
1.1899999581289635
1.1899999648710387
1.1899999718937515
1.189999979224295
1.189999986891201
1.1899999949249589
1.190000003359456
1.1900000122326457
1.1900000215859023
1.1900000314636197
1.1900000419144137
1.1900000529930477
1.1900000647614619
1.1900000772885624
1.1900000906502017
1.1900001049314211
1.1900001202307207
1.1900001366642341
1.1900001543717968
1.1900001735386685
1.1900001944766432
1.1900002179087625
1.190000245933043
1.1900002851482607
1.190000356245265
1.1900005215931955
1.1900009590683174
1.1900021443970232
1.1900052623442903
1.1900130409777112
1.1900312415627008
1.1900709151616604
1.1901510817418222
1.1903006359521688
1.1905573822862328
1.1909620520225668
1.1915468880374414
1.192321674986395
1.1932629572683935
1.1943122554666985
1.195385863623825
1.1963939650050108
1.1972625134019019
1.1979494305172196
1.1984488472044517
1.1987831976955874
1.1989869347205424
1.1990954603419299
1.199141398773641
1.1991480998412363
1.1991307544730183
1.1990981502506737
1.1990564862230406
1.1990117110603946
1.1989625188906887
1.1989055552867018
1.1988386547195886
1.1987599036146785
1.1986674712677337
1.1985595045914463
1.1984341064757331
1.1982894327904698
1.1981239361812268
1.1979367313886848
1.1977279908285883
1.1974992440841477
1.1972534759224434
1.1969949874612227
1.1967290639403017
1.1964615370595189
1.1961983263532645
1.1959450127213052
1.1957064680870204
1.195486556311339
1.1952879282898434
1.195111884400526
1.194959552404496
1.1948338575963935
1.194734934493527
1.194659265009917
1.1946002914659077
1.1945575588283865
1.1945323218395769
1.1945258351994306
1.1945386447849997
1.1945701332457968
1.1946133433655495
1.1946593610028704