/*--------------------------------*- C++ -*----------------------------------*\
  =========                 |
  \\      /  F ield         | OpenFOAM: The Open Source CFD Toolbox
   \\    /   O peration     | Website:  https://openfoam.org
    \\  /    A nd           | Version:  12
     \\/     M anipulation  |
\*---------------------------------------------------------------------------*/
FoamFile
{
    format      ascii;
    class       volScalarField;
    location    "10";
    object      rho;
}
// * * * * * * * * * * * * * * * * * * * * * * * * * * * * * * * * * * * * * //

dimensions      [1 -3 0 0 0 0 0];

internalField   nonuniform List<scalar> 
40000
(
1.16859179384
1.18521290229
1.18882246655
1.18968111565
1.1899077787
1.18997338348
1.18999386424
1.19000065997
1.19000303182
1.1900038986
1.1900042314
1.19000436769
1.19000442903
1.19000446057
1.19000447956
1.19000449278
1.190004503
1.19000451143
1.19000451862
1.19000452487
1.19000453036
1.19000453524
1.19000453958
1.19000454346
1.19000454694
1.19000455009
1.19000455293
1.19000455551
1.19000455786
1.19000456
1.19000456195
1.19000456374
1.19000456539
1.1900045669
1.1900045683
1.19000456959
1.19000457079
1.1900045719
1.19000457294
1.19000457391
1.19000457481
1.19000457567
1.19000457647
1.19000457724
1.19000457796
1.19000457865
1.19000457931
1.19000457994
1.19000458055
1.19000458113
1.19000458171
1.19000458227
1.19000458281
1.19000458335
1.19000458389
1.19000458442
1.19000458495
1.19000458549
1.19000458603
1.19000458658
1.19000458713
1.19000458771
1.19000458829
1.1900045889
1.19000458952
1.19000459017
1.19000459085
1.19000459156
1.1900045923
1.19000459308
1.1900045939
1.19000459476
1.19000459568
1.19000459664
1.19000459767
1.19000459876
1.19000459992
1.19000460116
1.19000460249
1.1900046039
1.19000460541
1.19000460704
1.19000460878
1.19000461066
1.19000461268
1.19000461487
1.19000461723
1.1900046198
1.19000462261
1.19000462578
1.19000462959
1.19000463493
1.19000464454
1.19000466636
1.19000472245
1.19000487033
1.19000525039
1.19000618131
1.19000833218
1.19001299284
1.1900224287
1.19004023281
1.1900715022
1.19012263258
1.1902006255
1.19031204728
1.19046207897
1.19065436094
1.19089276069
1.19118628404
1.19153380803
1.19192443762
1.19234309174
1.19277324976
1.19319965066
1.19361004171
1.19399576893
1.19435154734
1.19467485745
1.19496527717
1.1952239344
1.19545313734
1.19565619301
1.1958376449
1.1960063481
1.19617062257
1.1963337255
1.19649988439
1.19667408858
1.19686148453
1.19706645537
1.19729178213
1.19753834194
1.19780548241
1.19809175103
1.19839541553
1.19871436883
1.19904539671
1.19938316266
1.19971949293
1.2000435467
1.20034315949
1.20060710009
1.20082746061
1.20100125244
1.20113063275
1.20122181017
1.20128319305
1.20132350142
1.2013503797
1.20136971018
1.20138553682
1.20140036466
1.20141559844
1.20143195633
1.20144978074
1.20146923664
1.2014904188
1.20151339713
1.20153822586
1.20156493516
1.20159351738
1.2016239159
1.20165602087
1.20168967355
1.20172467824
1.20176081912
1.20179787841
1.20183565262
1.20187396471
1.20191267123
1.20195166476
1.20199087266
1.20203025335
1.20206979144
1.20210949257
1.20214937879
1.20218948475
1.20222985478
1.20227054114
1.20231160312
1.2023531071
1.20239512755
1.20243774915
1.20248107029
1.20252520854
1.20257030728
1.20261654176
1.20266398014
1.20272756499
1.20281577057
1.20293612226
1.20309774417
1.20331207046
1.20359362818
1.20396156361
1.20444394428
1.20510253981
1.20629806724
1.20786684627
1.16752166322
1.18515959756
1.18891230691
1.189734788
1.1899312759
1.18998244487
1.18999693612
1.19000138389
1.19000285804
1.1900033856
1.19000359136
1.19000368085
1.19000372568
1.19000375209
1.19000377015
1.19000378391
1.19000379515
1.19000380467
1.19000381291
1.19000382013
1.19000382651
1.19000383219
1.19000383726
1.19000384181
1.19000384592
1.19000384963
1.190003853
1.19000385607
1.19000385887
1.19000386144
1.19000386379
1.19000386596
1.19000386796
1.19000386981
1.19000387152
1.19000387312
1.19000387461
1.19000387601
1.19000387733
1.19000387857
1.19000387974
1.19000388085
1.19000388191
1.19000388293
1.1900038839
1.19000388484
1.19000388575
1.19000388663
1.19000388749
1.19000388833
1.19000388916
1.19000388998
1.19000389079
1.1900038916
1.19000389242
1.19000389323
1.19000389406
1.19000389489
1.19000389575
1.19000389662
1.19000389751
1.19000389843
1.19000389937
1.19000390036
1.19000390138
1.19000390244
1.19000390355
1.19000390472
1.19000390594
1.19000390722
1.19000390858
1.19000391001
1.19000391153
1.19000391313
1.19000391484
1.19000391666
1.1900039186
1.19000392066
1.19000392288
1.19000392525
1.19000392779
1.19000393053
1.19000393348
1.19000393666
1.1900039401
1.19000394384
1.19000394793
1.19000395246
1.19000395773
1.19000396458
1.19000397575
1.19000399975
1.1900040618
1.19000423247
1.19000469686
1.19000590767
1.19000888981
1.19001577492
1.19003059499
1.19006020044
1.1901148845
1.19020805811
1.19035446405
1.1905671468
1.19085432064
1.19121760111
1.19165247424
1.19215102168
1.19270676149
1.19331096928
1.19392442613
1.19451215725
1.19505053008
1.19552710693
1.19593812588
1.19628538428
1.1965735953
1.19680859998
1.19699638967
1.197142739
1.19725325735
1.19733375511
1.19739107649
1.19743609246
1.19748518124
1.19754327804
1.19762375496
1.19774058221
1.19790453601
1.19811891203
1.19837730066
1.19866459541
1.19896174435
1.19925195799
1.19952460181
1.19977504555
1.20000191991
1.2002044407
1.20038133153
1.20053121792
1.20065357307
1.20074941621
1.20082143672
1.2008736062
1.20091051629
1.2009366945
1.2009560803
1.20097174265
1.20098582696
1.20099966298
1.20101395068
1.20102895545
1.20104467176
1.20106095513
1.20107760252
1.20109438856
1.20111109034
1.20112749744
1.20114341274
1.20115864921
1.20117302638
1.2011863681
1.20119850262
1.20120926503
1.20121850161
1.20122607503
1.20123186981
1.20123579669
1.20123779548
1.20123783578
1.20123591582
1.20123205972
1.20122631401
1.20121874396
1.20120943067
1.20119846945
1.20118596986
1.20117205824
1.20115688333
1.20114062593
1.20112351417
1.20110584622
1.20108802344
1.20107059964
1.20105435844
1.20104043112
1.20103043021
1.2010325693
1.20107128551
1.20114640638
1.20126649058
1.20144475775
1.20169806859
1.20204756348
1.20251951037
1.20314629055
1.20396710102
1.20502836216
1.20640496912
1.20830969352
1.16628662121
1.18472720946
1.18883442668
1.18972961019
1.18993517383
1.18998503075
1.18999784493
1.19000136536
1.19000241544
1.19000276475
1.19000289978
1.19000296317
1.19000299983
1.190003025
1.19000304436
1.19000306025
1.19000307373
1.19000308541
1.19000309564
1.19000310468
1.19000311271
1.19000311988
1.19000312632
1.19000313212
1.19000313737
1.19000314214
1.19000314648
1.19000315047
1.19000315412
1.19000315749
1.19000316059
1.19000316345
1.19000316611
1.19000316859
1.19000317091
1.19000317308
1.19000317512
1.19000317705
1.19000317887
1.19000318061
1.19000318227
1.19000318386
1.19000318538
1.19000318686
1.19000318828
1.19000318967
1.19000319103
1.19000319235
1.19000319366
1.19000319495
1.19000319624
1.19000319751
1.19000319879
1.19000320007
1.19000320136
1.19000320267
1.190003204
1.19000320535
1.19000320673
1.19000320815
1.1900032096
1.19000321111
1.19000321266
1.19000321428
1.19000321595
1.1900032177
1.19000321953
1.19000322145
1.19000322346
1.19000322558
1.19000322781
1.19000323017
1.19000323266
1.1900032353
1.19000323811
1.1900032411
1.19000324428
1.19000324768
1.19000325131
1.19000325521
1.1900032594
1.1900032639
1.19000326875
1.190003274
1.1900032797
1.19000328593
1.19000329285
1.19000330092
1.19000331159
1.19000332957
1.1900033696
1.19000347592
1.19000377338
1.19000459187
1.19000674181
1.19001206043
1.19002435589
1.19005076282
1.19010319302
1.19019906437
1.19036019882
1.190609277
1.19096458686
1.19143503434
1.19201734062
1.19269612102
1.19344629726
1.19423683752
1.19503486207
1.19578887893
1.1964577403
1.19702501546
1.19748952567
1.19785947826
1.1981472596
1.1983658811
1.19852704874
1.19864044273
1.19871378847
1.1987534539
1.19876552035
1.19875753704
1.19874174559
1.19872668517
1.19870965281
1.19871337684
1.1987584597
1.19885425906
1.19899776725
1.19917582096
1.1993697951
1.19956107898
1.19973536687
1.19988442823
1.20000543016
1.20009903373
1.20016758848
1.20021409138
1.20024187505
1.20025461134
1.20025625681
1.20025080885
1.2002419498
1.20023272477
1.20022535399
1.20022120357
1.20022088247
1.20022440877
1.20023139043
1.20024118473
1.20025302106
1.20026608468
1.20027956844
1.20029270815
1.20030480142
1.20031521185
1.20032337026
1.2003287741
1.20033098515
1.20032962611
1.20032437742
1.20031497498
1.20030120907
1.20028292434
1.20026002036
1.20023245232
1.20020023139
1.20016342421
1.20012215144
1.20007658517
1.20002694551
1.19997349695
1.19991654516
1.19985643535
1.19979355302
1.1997283279
1.19966124288
1.19959284901
1.19952378851
1.19945482786
1.19938690446
1.19932119121
1.19925918454
1.19920282532
1.1991546672
1.19911810881
1.19910191145
1.19912924106
1.19919337391
1.19930445815
1.19947656456
1.19972796415
1.20008183065
1.2005670064
1.20121870662
1.20207879729
1.20319434969
1.20461058924
1.20635102086
1.20864589963
1.16514531804
1.18422207127
1.18869100509
1.18969497884
1.18992767935
1.18998338278
1.18999718591
1.19000075803
1.19000174468
1.19000204986
1.19000216473
1.19000222147
1.19000225768
1.19000228493
1.19000230721
1.19000232616
1.1900023426
1.19000235701
1.19000236974
1.19000238106
1.19000239118
1.19000240026
1.19000240844
1.19000241586
1.19000242259
1.19000242874
1.19000243436
1.19000243954
1.19000244431
1.19000244872
1.1900024528
1.1900024566
1.19000246014
1.19000246346
1.19000246657
1.19000246951
1.19000247228
1.19000247492
1.19000247743
1.19000247983
1.19000248214
1.19000248436
1.19000248651
1.19000248859
1.19000249062
1.1900024926
1.19000249455
1.19000249646
1.19000249836
1.19000250024
1.19000250211
1.19000250399
1.19000250587
1.19000250776
1.19000250967
1.19000251161
1.19000251358
1.19000251559
1.19000251765
1.19000251977
1.19000252194
1.19000252419
1.19000252651
1.19000252892
1.19000253142
1.19000253404
1.19000253677
1.19000253962
1.19000254262
1.19000254577
1.19000254909
1.19000255259
1.19000255629
1.19000256021
1.19000256437
1.1900025688
1.19000257351
1.19000257854
1.19000258391
1.19000258967
1.19000259585
1.1900026025
1.19000260968
1.19000261745
1.1900026259
1.19000263522
1.19000264587
1.19000265928
1.1900026801
1.19000272314
1.19000283336
1.19000313997
1.19000399046
1.19000625488
1.19001194515
1.19002532063
1.19005454546
1.19011359666
1.19022349153
1.19041139845
1.19070655261
1.19113344162
1.19170452345
1.19241522315
1.19324272134
1.19414831182
1.1950821615
1.19598928733
1.19681569824
1.19751408198
1.19807529847
1.19850858369
1.19883235793
1.19906765868
1.19923397948
1.19934731589
1.19941975419
1.19945995922
1.19947412375
1.19946712756
1.19944372471
1.19940940509
1.19936582048
1.19932112743
1.19929363416
1.19929351572
1.19932427542
1.19938261917
1.1994591442
1.19954086361
1.19961476262
1.19967085306
1.19970364217
1.19971192411
1.19969758466
1.19966426254
1.19961636819
1.19955853301
1.19949532223
1.19943102502
1.19936943533
1.19931363768
1.1992658581
1.19922742205
1.19919880848
1.19917977009
1.19916949244
1.19916676338
1.1991701289
1.1991780223
1.19918886302
1.19920112451
1.19921337597
1.19922430779
1.19923274584
1.19923765546
1.1992381403
1.19923343854
1.19922291746
1.19920606712
1.19918249428
1.19915191703
1.19911416069
1.19906915442
1.1990169284
1.19895761111
1.19889142624
1.19881868905
1.19873980186
1.19865524866
1.19856558917
1.19847145308
1.19837353537
1.19827259378
1.19816944973
1.19806499359
1.19796019604
1.19785612717
1.19775398562
1.19765513905
1.1975611797
1.19747400056
1.19739589807
1.19732971167
1.19727901376
1.19724836687
1.19725902427
1.19730291396
1.19738896626
1.19753034133
1.19774445036
1.19805377594
1.19848668256
1.19907807379
1.19986972327
1.20090979318
1.20225048244
1.20394307199
1.20604065168
1.20868236511
1.16410922748
1.18370822349
1.18851366262
1.1896465949
1.1899147452
1.18997966567
1.18999575212
1.18999985877
1.19000096094
1.19000128863
1.19000140832
1.19000146781
1.19000150714
1.19000153783
1.19000156358
1.19000158587
1.19000160543
1.19000162274
1.19000163814
1.19000165192
1.1900016643
1.19000167546
1.19000168558
1.19000169478
1.19000170317
1.19000171086
1.19000171793
1.19000172446
1.1900017305
1.1900017361
1.19000174131
1.19000174617
1.19000175073
1.19000175502
1.19000175906
1.19000176289
1.19000176652
1.19000176998
1.1900017733
1.19000177648
1.19000177954
1.1900017825
1.19000178537
1.19000178816
1.19000179089
1.19000179357
1.1900017962
1.19000179881
1.19000180138
1.19000180395
1.19000180651
1.19000180907
1.19000181164
1.19000181424
1.19000181687
1.19000181953
1.19000182224
1.19000182501
1.19000182784
1.19000183074
1.19000183373
1.19000183682
1.19000184001
1.19000184332
1.19000184676
1.19000185034
1.19000185408
1.190001858
1.1900018621
1.1900018664
1.19000187094
1.19000187571
1.19000188076
1.1900018861
1.19000189177
1.19000189778
1.19000190419
1.19000191102
1.19000191831
1.19000192612
1.19000193451
1.19000194353
1.19000195326
1.1900019638
1.1900019753
1.19000198811
1.19000200319
1.19000202359
1.19000205918
1.19000214063
1.19000235856
1.19000296473
1.19000461234
1.19000887255
1.19001922117
1.19004266106
1.19009188801
1.19018730584
1.19035743067
1.19063597474
1.19105496174
1.19163543193
1.19237907845
1.19326397141
1.19424564813
1.19526294694
1.19624713236
1.19713277831
1.19786870376
1.1984401319
1.19886266127
1.19916211101
1.19936671948
1.19950186058
1.19958764686
1.19963855169
1.19966414177
1.19967025604
1.1996602362
1.19963598687
1.19959909555
1.19955431872
1.19950894528
1.19946911524
1.19943889674
1.19941973009
1.19940959294
1.19940311618
1.19939273591
1.19937060896
1.19933057364
1.19926939893
1.19918700275
1.19908585837
1.19897007494
1.19884455996
1.19871443261
1.19858466061
1.19845982104
1.19834390959
1.19824017446
1.19815097988
1.19807772716
1.19802086652
1.19797996413
1.19795380427
1.19794055603
1.19793797724
1.19794361803
1.19795499497
1.19796972374
1.1979855971
1.19800061832
1.19801301717
1.19802125306
1.19802400959
1.19802018454
1.19800887797
1.19798937985
1.1979611581
1.19792384797
1.19787724286
1.19782128676
1.19775606773
1.19768181179
1.19759887668
1.19750774484
1.19740901548
1.19730339532
1.19719168829
1.19707478441
1.19695364886
1.19682931221
1.19670286339
1.19657544692
1.19644826584
1.19632259184
1.19619978507
1.19608132695
1.19596886532
1.19586427371
1.19576973615
1.19568786834
1.19562188603
1.19557585465
1.19556123975
1.19557969941
1.19563257107
1.19573098154
1.19589030208
1.19613086004
1.19647890327
1.19696739722
1.19763648057
1.19853348959
1.19971202732
1.20122903325
1.20313866492
1.20548542813
1.20832121208
1.16317528585
1.18321791354
1.18833993937
1.18959359293
1.18989918221
1.18997485997
1.18999391054
1.18999881196
1.19000012389
1.19000050751
1.1900006437
1.19000070988
1.19000075351
1.19000078786
1.19000081703
1.19000084253
1.1900008651
1.19000088522
1.19000090324
1.19000091946
1.1900009341
1.19000094738
1.19000095947
1.1900009705
1.19000098062
1.19000098992
1.1900009985
1.19000100644
1.19000101382
1.19000102069
1.1900010271
1.19000103311
1.19000103876
1.19000104409
1.19000104913
1.19000105392
1.19000105848
1.19000106284
1.19000106702
1.19000107105
1.19000107493
1.1900010787
1.19000108236
1.19000108593
1.19000108942
1.19000109285
1.19000109624
1.19000109958
1.19000110291
1.19000110621
1.19000110951
1.19000111282
1.19000111615
1.19000111951
1.1900011229
1.19000112635
1.19000112986
1.19000113344
1.1900011371
1.19000114086
1.19000114472
1.19000114871
1.19000115283
1.1900011571
1.19000116154
1.19000116615
1.19000117097
1.190001176
1.19000118127
1.1900011868
1.19000119262
1.19000119875
1.19000120522
1.19000121205
1.1900012193
1.19000122699
1.19000123517
1.19000124389
1.19000125321
1.19000126317
1.19000127386
1.19000128535
1.19000129775
1.19000131119
1.19000132588
1.19000134235
1.19000136213
1.19000139006
1.19000144161
1.19000156408
1.19000189452
1.19000280555
1.19000524129
1.19001141497
1.1900260868
1.19005855564
1.19012511497
1.19025096878
1.1904697952
1.19081912462
1.1913312385
1.19202194522
1.19288147045
1.19387123824
1.19492799887
1.19597438465
1.19693350876
1.19774420836
1.19837264285
1.19882680134
1.19913776867
1.19933983877
1.19946449071
1.19953688332
1.19957503042
1.19959053957
1.19958999991
1.19957645452
1.19955066064
1.19951443852
1.19947350941
1.19942838509
1.1993796907
1.19932831414
1.19927426116
1.19921607363
1.19915069273
1.19907390244
1.19898127993
1.19886934362
1.19873647647
1.19858331383
1.1984125605
1.19822844368
1.19803607793
1.19784093046
1.19764844326
1.19746377921
1.19729163225
1.1971360607
1.19700034049
1.19688682215
1.19679679359
1.19673046158
1.19668690819
1.19666390644
1.19665825425
1.19666619268
1.19668381774
1.19670743402
1.19673380412
1.19676015644
1.19678405588
1.19680341248
1.19681647772
1.19682182576
1.19681832603
1.19680511362
1.19678156184
1.19674725884
1.19670198866
1.19664571639
1.19657857633
1.19650086199
1.19641301662
1.19631562327
1.19620939359
1.19609515503
1.19597383634
1.19584645167
1.19571408431
1.19557787128
1.19543899086
1.19529865513
1.1951581102
1.19501864695
1.19488162283
1.1947484967
1.19462088282
1.19450061635
1.19438981628
1.19429096754
1.19420706139
1.19414175993
1.19409957313
1.1940910533
1.1941084494
1.19415986012
1.19425801036
1.19442029159
1.19466981992
1.19503649392
1.19555769092
1.19627846264
1.19725172642
1.1985377169
1.20020121935
1.20230403219
1.20489380185
1.20803819596
1.16233314921
1.18275398349
1.18816900892
1.18953837217
1.18988206621
1.1899693639
1.18999180835
1.18999767495
1.18999925773
1.18999971792
1.18999987714
1.18999995179
1.18999999994
1.19000003773
1.19000006998
1.19000009837
1.19000012369
1.19000014641
1.19000016689
1.19000018541
1.19000020223
1.19000021756
1.19000023156
1.1900002444
1.19000025622
1.19000026712
1.19000027722
1.1900002866
1.19000029533
1.19000030348
1.19000031112
1.1900003183
1.19000032507
1.19000033147
1.19000033755
1.19000034333
1.19000034885
1.19000035415
1.19000035923
1.19000036414
1.19000036888
1.19000037349
1.19000037797
1.19000038235
1.19000038664
1.19000039087
1.19000039503
1.19000039916
1.19000040325
1.19000040733
1.19000041141
1.1900004155
1.19000041962
1.19000042377
1.19000042796
1.19000043222
1.19000043656
1.19000044098
1.19000044551
1.19000045015
1.19000045492
1.19000045983
1.19000046492
1.19000047018
1.19000047564
1.19000048132
1.19000048724
1.19000049343
1.1900004999
1.19000050669
1.19000051382
1.19000052133
1.19000052925
1.19000053762
1.19000054648
1.19000055587
1.19000056586
1.1900005765
1.19000058786
1.19000060001
1.19000061303
1.19000062703
1.19000064212
1.19000065847
1.19000067636
1.19000069644
1.19000072066
1.19000075519
1.19000081947
1.19000097242
1.19000138279
1.19000250395
1.19000546985
1.19001290246
1.19003035955
1.19006853307
1.19014585823
1.19029035957
1.19053871469
1.1909305659
1.19149787476
1.1922521358
1.19317452676
1.19421370124
1.19529314281
1.19632658506
1.19723720766
1.1979744287
1.19852200023
1.19889634837
1.19913480893
1.19927560328
1.19935059015
1.19938350468
1.19939025038
1.19938028169
1.19935830432
1.19932583679
1.19928729649
1.19924529319
1.19919640692
1.19913907676
1.19907232988
1.19899508053
1.19890578133
1.19880229903
1.19868207571
1.19854258252
1.19838195623
1.19819961118
1.19799661261
1.19777570067
1.1975410049
1.19729759242
1.19705100145
1.19680685204
1.19657055643
1.19634711089
1.19614094014
1.19595576737
1.19579454168
1.19565935731
1.19555108333
1.19547230355
1.19542710288
1.19541258948
1.19542341322
1.19545290095
1.19549367062
1.19553823075
1.19558291883
1.19562615488
1.19566543719
1.19569838255
1.19572296357
1.19573758287
1.19574106462
1.19573261163
1.19571175137
1.19567828438
1.19563224086
1.19557384672
1.19550349798
1.19542174111
1.1953292565
1.19522684321
1.19511540309
1.19499592361
1.19486945897
1.19473710997
1.19460000385
1.1944592762
1.19431605762
1.1941714682
1.19402662319
1.19388265665
1.19374076335
1.19360225547
1.19346865415
1.19334181304
1.19322399966
1.19311794222
1.19302699553
1.19295527035
1.19291053682
1.19289093901
1.19289367912
1.192928201
1.19300875594
1.19315492198
1.19339284384
1.19375628641
1.19428702537
1.19503449872
1.19605715614
1.1974235129
1.19921055411
1.2014961619
1.20434763848
1.20784929424
1.16157161626
1.18231608271
1.18800195675
1.18948209104
1.18986391301
1.18996336629
1.18998951124
1.18999647143
1.18999837203
1.18999892452
1.18999911151
1.1899991957
1.18999924832
1.18999928917
1.18999932407
1.18999935497
1.18999938271
1.18999940774
1.18999943044
1.18999945109
1.18999946993
1.18999948717
1.18999950299
1.18999951756
1.18999953101
1.18999954347
1.18999955504
1.18999956582
1.18999957588
1.18999958531
1.18999959416
1.18999960251
1.18999961039
1.18999961787
1.18999962499
1.18999963177
1.18999963827
1.1899996445
1.1899996505
1.18999965629
1.18999966191
1.18999966737
1.18999967269
1.18999967789
1.189999683
1.18999968802
1.18999969299
1.1899996979
1.18999970279
1.18999970766
1.18999971252
1.18999971741
1.18999972232
1.18999972727
1.18999973229
1.18999973737
1.18999974255
1.18999974783
1.18999975322
1.18999975876
1.18999976444
1.1899997703
1.18999977635
1.18999978262
1.18999978911
1.18999979587
1.1899998029
1.18999981024
1.18999981792
1.18999982597
1.18999983442
1.18999984331
1.18999985268
1.18999986257
1.18999987304
1.18999988414
1.18999989593
1.18999990848
1.18999992187
1.18999993617
1.1899999515
1.18999996797
1.18999998571
1.19000000492
1.1900000259
1.19000004938
1.19000007745
1.19000011673
1.1900001879
1.19000035334
1.19000079098
1.19000197661
1.1900050952
1.19001287525
1.19003107888
1.19007075865
1.19015093683
1.19030051102
1.19055728868
1.19096200275
1.19154689507
1.19232174573
1.19326309131
1.19431244252
1.19538608335
1.19639418936
1.19726271215
1.19794957865
1.19844893095
1.19878321628
1.19898689674
1.19909537982
1.19914129027
1.19914797557
1.19913062363
1.19909801915
1.19905635848
1.1990115888
1.19896240358
1.19890544711
1.19883855324
1.19875980799
1.19866738049
1.19855941763
1.19843402244
1.19828935106
1.19812385651
1.19793665388
1.19772791584
1.19749917198
1.1972534068
1.1969949209
1.19672899889
1.19646147188
1.19619825899
1.19594494095
1.19570638983
1.1954864699
1.1952878327
1.19511177944
1.19495943744
1.19483373415
1.19473480514
1.19465913845
1.19460017322
1.19455745197
1.19453222834
1.19452575604
1.19453857963
1.1945700798
1.19461329406
1.19465931133
1.19470537342
1.19474817015
1.19478456726
1.1948119166
1.19482817202
1.19483190403
1.1948222484
1.19479882665
1.19476165837
1.19471107883
1.19464766881
1.1945721978
1.1944855789
1.19438883241
1.19428305528
1.19416939372
1.19404901703
1.19392309189
1.19379275709
1.19365909985
1.19352313554
1.19338579314
1.19324790666
1.19311022365
1.19297344236
1.19283824236
1.19270535903
1.19257592769
1.19245163042
1.19233451368
1.19222795944
1.19214107243
1.19207729276
1.19202700409
1.19199362507
1.19198773113
1.19202550174
1.19212957381
1.19233011265
1.19266542804
1.19318173415
1.19393126076
1.19497691849
1.19639655665
1.19828292038
1.20073569817
1.20384787206
1.20771719735
1.16087975389
1.18190229865
1.18783894427
1.18942501391
1.18984495917
1.18995697142
1.18998705559
1.18999521324
1.18999747096
1.18999812923
1.18999834809
1.18999844274
1.18999849971
1.18999854323
1.18999858036
1.18999861336
1.18999864315
1.18999867021
1.18999869487
1.18999871742
1.18999873809
1.18999875708
1.18999877459
1.18999879077
1.18999880577
1.1899988197
1.18999883268
1.1899988448
1.18999885615
1.18999886681
1.18999887684
1.18999888633
1.18999889531
1.18999890385
1.18999891198
1.18999891976
1.18999892721
1.18999893437
1.18999894128
1.18999894796
1.18999895444
1.18999896074
1.1899989669
1.18999897292
1.18999897884
1.18999898467
1.18999899043
1.18999899613
1.18999900181
1.18999900746
1.18999901312
1.1899990188
1.18999902451
1.18999903027
1.1899990361
1.18999904201
1.18999904802
1.18999905415
1.18999906042
1.18999906684
1.18999907344
1.18999908024
1.18999908725
1.18999909451
1.18999910203
1.18999910985
1.18999911799
1.18999912648
1.18999913535
1.18999914464
1.18999915439
1.18999916464
1.18999917544
1.18999918683
1.18999919888
1.18999921165
1.1899992252
1.18999923961
1.18999925497
1.18999927138
1.18999928895
1.18999930781
1.18999932811
1.18999935006
1.18999937397
1.18999940056
1.18999943182
1.18999947392
1.18999954616
1.18999970661
1.190000121
1.19000123322
1.19000415126
1.19001143478
1.19002851468
1.19006587726
1.1901417368
1.19028410979
1.19053025456
1.19092117127
1.19149030941
1.19224896278
1.19317434021
1.19420714723
1.19526216796
1.19624915876
1.19709576324
1.19776270695
1.19824583081
1.19856697419
1.19876066692
1.19886129712
1.19889656431
1.19888939012
1.19885691484
1.19881101817
1.19875752724
1.19869678948
1.19862821705
1.19855024427
1.19846088808
1.19835804816
1.19823968224
1.19810393581
1.19794928594
1.19777473769
1.19758008118
1.19736617607
1.19713519456
1.19689074139
1.19663778912
1.19638240875
1.19613131804
1.19589129516
1.19566851338
1.19546785786
1.19529230275
1.19514244138
1.19501632183
1.19490614583
1.19480238975
1.19469674499
1.19458796104
1.19447794767
1.19436976953
1.19426712826
1.19417386016
1.19409360717
1.19402972944
1.19398540245
1.19396389657
1.19396544936
1.19398046752
1.19400196128
1.19402639426
1.19404982384
1.19406870058
1.19408006268
1.1940816215
1.19407178621
1.19404962499
1.19401478456
1.19396739226
1.19390795521
1.19383726635
1.19375632194
1.19366625203
1.19356826281
1.19346358857
1.19335345109
1.19323902463
1.19312140504
1.19300158018
1.19288039801
1.19275852748
1.19263639853
1.19251434829
1.19239250148
1.19226957409
1.19214752261
1.19202874219
1.19191583943
1.1918116947
1.19171499167
1.1916231653
1.19153344182
1.19144874756
1.19137967036
1.19134559861
1.19137550221
1.19150720373
1.19178604234
1.19226332215
1.19299084631
1.19403349005
1.19547888775
1.19743835552
1.20003725238
1.2033965775
1.20762050228
1.16024779921
1.18151014196
1.18767935328
1.18936616679
1.18982530646
1.18995025801
1.18998446874
1.18999390826
1.1899965567
1.1899973328
1.18999758736
1.18999769337
1.18999775464
1.18999780049
1.18999783944
1.18999787417
1.18999790567
1.18999793443
1.18999796079
1.189997985
1.1899980073
1.18999802789
1.18999804693
1.18999806459
1.18999808101
1.18999809632
1.18999811062
1.18999812401
1.18999813658
1.18999814842
1.18999815959
1.18999817017
1.18999818021
1.18999818977
1.1899981989
1.18999820763
1.18999821602
1.18999822409
1.18999823189
1.18999823944
1.18999824677
1.18999825391
1.18999826088
1.18999826772
1.18999827443
1.18999828105
1.1899982876
1.18999829409
1.18999830054
1.18999830698
1.18999831342
1.18999831988
1.18999832638
1.18999833293
1.18999833956
1.18999834629
1.18999835313
1.1899983601
1.18999836723
1.18999837453
1.18999838203
1.18999838975
1.18999839771
1.18999840595
1.18999841448
1.18999842334
1.18999843255
1.18999844216
1.1899984522
1.18999846271
1.18999847373
1.18999848531
1.18999849749
1.18999851034
1.18999852392
1.1899985383
1.18999855355
1.18999856976
1.18999858703
1.18999860545
1.18999862516
1.1899986463
1.18999866903
1.18999869356
1.18999872021
1.18999874962
1.1899987835
1.18999882704
1.18999889635
1.18999904005
1.18999939742
1.19000034372
1.19000282257
1.19000903356
1.19002369534
1.19005604539
1.19012241036
1.19024846782
1.1904693694
1.19082537584
1.191351626
1.19206369636
1.19294454667
1.19394031722
1.19496963504
1.19594419945
1.19679172659
1.19747091072
1.19797336097
1.19831523977
1.19852542554
1.19863567696
1.19867476278
1.19866597012
1.19862646102
1.19856770331
1.19849637587
1.19841547704
1.19832560885
1.19822592978
1.19811485767
1.19799057469
1.19785138518
1.19769599141
1.1975237412
1.19733487654
1.19713078124
1.19691419196
1.19668931186
1.1964617567
1.19623827442
1.19602620545
1.19583268681
1.19566364799
1.19552270694
1.19541016048
1.19532238595
1.19525029906
1.19517348941
1.19508068462
1.19496917575
1.19484014253
1.19469727475
1.19454557457
1.19439040542
1.19423688567
1.19408954109
1.19395215147
1.19382775506
1.19371877848
1.19362729198
1.1935554447
1.19350646959
1.19347935323
1.19346575976
1.1934595701
1.19345773708
1.19345680854
1.19345359771
1.193445408
1.1934301215
1.19340622324
1.19337278828
1.19332942335
1.19327618838
1.19321350558
1.19314206963
1.19306276409
1.19297658802
1.19288459189
1.19278782121
1.19268726746
1.19258381737
1.19247804865
1.1923701977
1.19225834044
1.19214370823
1.19202951391
1.19192027395
1.19181667496
1.19171811979
1.19162416166
1.19153421954
1.19144679604
1.19135880017
1.19126595559
1.19116535921
1.19105821595
1.19095832643
1.19090022301
1.19093635535
1.19113111561
1.19154570461
1.19222835042
1.19324269479
1.19468640425
1.19669150197
1.1994117446
1.20299706353
1.20754756264
1.15966785124
1.18113828547
1.1875249816
1.18930942341
1.18980558629
1.18994335003
1.18998177872
1.18999256287
1.18999563052
1.1899965354
1.18999682935
1.18999694769
1.18999701328
1.18999706118
1.1899971016
1.1899971377
1.18999717059
1.18999720077
1.18999722856
1.18999725422
1.18999727794
1.18999729993
1.18999732035
1.18999733936
1.18999735708
1.18999737366
1.18999738918
1.18999740377
1.18999741748
1.18999743043
1.18999744268
1.1899974543
1.18999746536
1.1899974759
1.18999748598
1.18999749564
1.18999750493
1.18999751389
1.18999752254
1.18999753094
1.1899975391
1.18999754705
1.18999755483
1.18999756245
1.18999756995
1.18999757734
1.18999758466
1.18999759191
1.18999759913
1.18999760633
1.18999761354
1.18999762077
1.18999762804
1.18999763538
1.1899976428
1.18999765033
1.18999765798
1.18999766578
1.18999767374
1.1899976819
1.18999769028
1.1899976989
1.18999770779
1.18999771698
1.18999772649
1.18999773637
1.18999774663
1.18999775733
1.1899977685
1.18999778019
1.18999779243
1.18999780529
1.18999781881
1.18999783307
1.18999784812
1.18999786404
1.18999788091
1.18999789883
1.18999791791
1.18999793824
1.18999795998
1.18999798326
1.18999800826
1.18999803519
1.18999806437
1.18999809633
1.18999813244
1.18999817669
1.18999824138
1.18999836363
1.18999865055
1.18999939339
1.19000133266
1.1900062174
1.1900178593
1.19004386322
1.1900979864
1.19020250335
1.19038907326
1.1906958937
1.19115933215
1.19180062613
1.19261217604
1.19355082584
1.19454398167
1.19550782707
1.19636942635
1.19708228919
1.19762997985
1.19801993861
1.19827360938