/*--------------------------------*- C++ -*----------------------------------*\
  =========                 |
  \\      /  F ield         | OpenFOAM: The Open Source CFD Toolbox
   \\    /   O peration     | Website:  https://openfoam.org
    \\  /    A nd           | Version:  12
     \\/     M anipulation  |
\*---------------------------------------------------------------------------*/
FoamFile
{
    format      ascii;
    class       volScalarField;
    location    "10";
    object      T;
}
// * * * * * * * * * * * * * * * * * * * * * * * * * * * * * * * * * * * * * //

dimensions      [0 0 0 1 0 0 0];

internalField   nonuniform List<scalar> 
40000
(
298.486001531
294.300114461
293.40654578
293.194780734
293.138930852
293.122769828
293.117725022
293.116051169
293.115466987
293.115253517
293.115171571
293.115138025
293.115122937
293.115115187
293.115110527
293.115107287
293.115104785
293.115102725
293.115100969
293.115099444
293.115098104
293.115096918
293.115095864
293.115094922
293.115094077
293.115093318
293.115092632
293.115092012
293.11509145
293.115090939
293.115090474
293.11509005
293.115089663
293.115089308
293.115088983
293.115088685
293.11508841
293.115088157
293.115087923
293.115087707
293.115087506
293.11508732
293.115087146
293.115086985
293.115086834
293.115086692
293.115086559
293.115086433
293.115086315
293.115086202
293.115086095
293.115085993
293.115085895
293.1150858
293.115085707
293.115085618
293.115085529
293.115085442
293.115085356
293.115085269
293.115085182
293.115085094
293.115085005
293.115084913
293.115084819
293.115084721
293.11508462
293.115084514
293.115084403
293.115084286
293.115084162
293.115084031
293.115083892
293.115083743
293.115083584
293.115083414
293.115083231
293.115083035
293.115082824
293.115082595
293.115082349
293.115082082
293.115081792
293.115081477
293.115081135
293.115080761
293.115080353
293.115079903
293.115079403
293.115078828
293.115078107
293.11507702
293.115074898
293.115069782
293.115056241
293.115020107
293.114926805
293.114697838
293.114168406
293.113020805
293.110697068
293.106312277
293.098611276
293.086019538
293.066814284
293.039381553
293.002450763
292.955133388
292.896488282
292.824315152
292.738909878
292.642970586
292.540218106
292.434717203
292.330212764
292.229702532
292.135295721
292.04827289
291.969236665
291.898277246
291.835107518
291.779154035
291.729601647
291.685335608
291.644191784
291.604139286
291.564383376
291.523893773
291.481455783
291.435817919
291.385916253
291.331078462
291.271096794
291.206136223
291.136556395
291.062784687
290.985338985
290.905005
290.823081516
290.741552083
290.6630418
290.590490679
290.52660756
290.473293896
290.43126078
290.399976882
290.377934402
290.363096732
290.353354062
290.346857827
290.342185971
290.338361017
290.334777523
290.331096002
290.327142917
290.322835556
290.318134085
290.313015646
290.307463395
290.301464277
290.295011066
290.288105667
290.280761822
290.273006134
290.264877013
290.25642179
290.247692646
290.238742224
290.229619706
290.220367878
290.211021403
290.201606238
290.192139937
290.182632552
290.173087815
290.163504377
290.153876931
290.144197143
290.134454332
290.124635923
290.114727651
290.104713548
290.094575709
290.084293791
290.073844162
290.063198594
290.05232268
290.041174362
290.029737365
290.01440875
289.993146758
289.964140042
289.925194341
289.873562736
289.80575996
289.717199989
289.601170739
289.442901389
289.156040451
288.780483313
298.759416179
294.313180326
293.384203747
293.181383099
293.132971517
293.120366949
293.116797524
293.115702011
293.115338945
293.11520903
293.115158376
293.115136357
293.115125335
293.115118849
293.11511442
293.115111045
293.115108294
293.115105964
293.115103949
293.115102185
293.115100627
293.115099243
293.115098008
293.115096901
293.115095905
293.115095006
293.115094191
293.11509345
293.115092775
293.115092159
293.115091596
293.11509108
293.115090605
293.115090168
293.115089764
293.11508939
293.115089042
293.115088719
293.115088417
293.115088134
293.115087868
293.115087618
293.115087382
293.115087158
293.115086945
293.115086742
293.115086547
293.11508636
293.11508618
293.115086005
293.115085834
293.115085668
293.115085504
293.115085342
293.115085182
293.115085022
293.115084861
293.1150847
293.115084537
293.115084371
293.115084202
293.115084028
293.11508385
293.115083665
293.115083474
293.115083274
293.115083066
293.115082848
293.115082618
293.115082376
293.11508212
293.115081849
293.115081562
293.115081255
293.115080929
293.11508058
293.115080206
293.115079806
293.115079375
293.115078911
293.115078411
293.11507787
293.115077284
293.115076648
293.115075955
293.115075198
293.115074365
293.11507343
293.115072327
293.115070845
293.11506831
293.115062628
293.115047587
293.115005809
293.114891696
293.114593751
293.113859522
293.112163978
293.108514055
293.101222693
293.08775551
293.064811999
293.028767336
292.976421146
292.90577047
292.816444669
292.709586701
292.587178365
292.450848103
292.302771984
292.152582396
292.008835714
291.877285011
291.76093284
291.660660439
291.575996689
291.505766272
291.44852596
291.402801916
291.367177873
291.340281448
291.320694115
291.306747836
291.295796446
291.283855276
291.269724194
291.250151829
291.221743559
291.181885069
291.129784923
291.067013032
290.997250522
290.925130299
290.854727802
290.788618568
290.727918776
290.672953355
290.623905707
290.581078822
290.544799851
290.515191353
290.492002669
290.474580173
290.461961153
290.453033814
290.446702494
290.442014115
290.438226332
290.434820248
290.431474267
290.42801912
290.42439064
290.42059018
290.416652688
290.412627273
290.408568434
290.404530071
290.400563057
290.396715049
290.39303125
290.38955528
290.386329711
290.383396045
290.380794126
290.378561104
290.37673015
290.37532917
290.374379726
290.373896361
290.373886419
290.37435033
290.37528227
290.376671005
290.378500776
290.380751999
290.38340166
290.386423303
290.389786419
290.39345509
290.397385641
290.401522961
290.405795004
290.410104775
290.414318417
290.418246502
290.421615542
290.424035677
290.423520821
290.414162284
290.396003604
290.366979386
290.323901671
290.26271018
290.178323967
290.064446365
289.91334276
289.715695953
289.460545172
289.130245531
288.674472713
299.075614381
294.420424082
293.403252447
293.182488267
293.131840486
293.119559172
293.116402839
293.115535742
293.115277125
293.115191115
293.115157881
293.115142289
293.115133281
293.115127098
293.115122346
293.11511845
293.115115143
293.115112282
293.115109776
293.115107565
293.115105601
293.115103849
293.115102278
293.115100864
293.115099586
293.115098426
293.11509737
293.115096404
293.115095519
293.115094707
293.115093961
293.115093271
293.115092634
293.115092041
293.11509149
293.115090975
293.115090492
293.115090038
293.11508961
293.115089204
293.115088819
293.115088452
293.115088101
293.115087764
293.11508744
293.115087126
293.115086821
293.115086524
293.115086233
293.115085947
293.115085665
293.115085386
293.115085108
293.11508483
293.115084551
293.11508427
293.115083986
293.115083698
293.115083404
293.115083104
293.115082795
293.115082478
293.11508215
293.115081809
293.115081456
293.115081087
293.115080701
293.115080297
293.115079873
293.115079426
293.115078954
293.115078455
293.115077927
293.115077365
293.115076767
293.11507613
293.115075449
293.11507472
293.115073939
293.115073099
293.115072194
293.115071218
293.115070161
293.115069015
293.115067766
293.115066396
293.115064864
293.115063058
293.115060621
293.115056398
293.115046752
293.115020793
293.114947766
293.114746417
293.114217131
293.11290738
293.109879213
293.103375507
293.090463134
293.06685486
293.027183911
292.965882339
292.878479904
292.762834916
292.619819211
292.453285428
292.2694555
292.075984264
291.880940923
291.69689252
291.533823851
291.395664669
291.282631142
291.192669782
291.122728295
291.069617522
291.030476561
291.002944012
290.985137973
290.975509189
290.972579956
290.974517461
290.97835038
290.982006021
290.986140524
290.985236577
290.974293343
290.951042022
290.91621824
290.873023157
290.825980396
290.779604947
290.737362909
290.701244734
290.671932074
290.649260717
290.632658598
290.62139795
290.6146706
290.611586863
290.611188528
290.612507685
290.614652776
290.616886509
290.618671283
290.619676292
290.619754064
290.618900219
290.617209698
290.61483815
290.611972196
290.608809126
290.605544384
290.602362999
290.599435014
290.59691449
290.594939205
290.593630801
290.593095355
290.593424199
290.594694705
290.596970837
290.600303416
290.604730129
290.610275394
290.616950185
290.624751958
290.633664755
290.643659559
290.654694918
290.666717757
290.679664254
290.693460605
290.70802342
290.723259525
290.739064992
290.755322984
290.771900091
290.788640746
290.805359186
290.821828127
290.837763078
290.852800965
290.866470787
290.878152781
290.887022092
290.890952885
290.884325201
290.86877146
290.841833641
290.800106843
290.739176043
290.653452637
290.536000185
290.37838193
290.170621289
289.901590744
289.560759642
289.14300259
288.594000809
299.368395771
294.545839678
293.438482137
293.190851846
293.133515913
293.119794296
293.11639435
293.115514511
293.115271513
293.115196367
293.115168097
293.115154142
293.115145242
293.115138547
293.115133075
293.115128423
293.11512439
293.115120855
293.115117732
293.115114958
293.115112481
293.115110258
293.115108256
293.115106445
293.1151048
293.115103301
293.11510193
293.115100671
293.115099511
293.115098441
293.115097452
293.115096534
293.115095679
293.11509488
293.115094132
293.115093428
293.115092764
293.115092136
293.115091538
293.115090969
293.115090425
293.115089902
293.115089398
293.115088911
293.115088438
293.115087977
293.115087526
293.115087084
293.115086649
293.115086218
293.11508579
293.115085363
293.115084937
293.115084508
293.115084077
293.11508364
293.115083197
293.115082746
293.115082285
293.115081813
293.115081327
293.115080827
293.115080309
293.115079773
293.115079215
293.115078633
293.115078026
293.11507739
293.115076722
293.11507602
293.11507528
293.115074499
293.115073672
293.115072795
293.115071863
293.115070871
293.115069813
293.115068682
293.115067471
293.115066172
293.115064774
293.115063267
293.115061637
293.11505987
293.115057941
293.115055808
293.115053355
293.115050231
293.115045292
293.115034893
293.115007955
293.114932659
293.114723407
293.114165902
293.112764585
293.10947038
293.102272625
293.087729752
293.060668905
293.014409491
292.941776963
292.836790208
292.696458951
292.522007196
292.319147295
292.097465335
291.869217536
291.647842711
291.446457607
291.276487621
291.140044402
291.034791204
290.956189853
290.899093352
290.858748435
290.831262348
290.813697323
290.803949016
290.800514499
290.80221027
290.807883901
290.816204726
290.826772674
290.837610284
290.844277572
290.844306345
290.836847015
290.822699449
290.804145223
290.784334159
290.766421285
290.752826617
290.744880094
290.742873028
290.746348166
290.754424016
290.766032338
290.780051296
290.795374832
290.810963408
290.825897138
290.839427805
290.851015145
290.86033721
290.867277391
290.871895331
290.874388353
290.875050372
290.874234047
290.872319422
290.869689909
290.866715814
290.863744192
290.861092675
290.859046018
290.857855139
290.857737416
290.858877614
290.861429228
290.865516014
290.871233493
290.878650233
290.887808875
290.898726936
290.911397487
290.925789814
290.941850144
290.959502516
290.978649853
290.999175248
291.020943385
291.043801904
291.067582521
291.092101617
291.117159991
291.142541552
291.168010552
291.193306903
291.218139093
291.242174306
291.265024904
291.286229872
291.30522983
291.321333071
291.333669411
291.341127714
291.338535506
291.327857473
291.306922897
291.272535399
291.220471228
291.145285735
291.040126546
290.896590582
290.704669689
290.452905762
290.129011967
289.721130269
289.217239611
288.585122427
299.634667665
294.673530395
293.482096204
293.202605347
293.136531415
293.1205391
293.116576702
293.115565189
293.115293732
293.115213039
293.115183577
293.115168941
293.115159271
293.115151729
293.1151454
293.115139925
293.115135122
293.115130873
293.115127093
293.115123713
293.115120678
293.115117941
293.115115463
293.115113212
293.115111158
293.115109278
293.115107551
293.11510596
293.115104488
293.115103124
293.115101857
293.115100675
293.11509957
293.115098532
293.115097555
293.115096632
293.115095757
293.115094925
293.11509413
293.115093369
293.115092638
293.115091933
293.115091251
293.115090588
293.115089942
293.11508931
293.11508869
293.115088079
293.115087475
293.115086876
293.115086279
293.115085683
293.115085084
293.115084483
293.115083875
293.11508326
293.115082635
293.115081997
293.115081346
293.115080678
293.115079991
293.115079283
293.115078551
293.115077792
293.115077004
293.115076183
293.115075326
293.115074429
293.115073489
293.115072502
293.115071462
293.115070366
293.115069206
293.115067978
293.115066676
293.11506529
293.115063814
293.115062239
293.115060553
293.115058746
293.115056804
293.115054712
293.115052451
293.115049998
293.115047315
293.115044319
293.115040773
293.115035923
293.115027342
293.115007477
293.114954006
293.114804915
293.114399316
293.113350212
293.1108015
293.105028456
293.092904736
293.069407631
293.027522695
292.958970464
292.855914188
292.713258277
292.530703135
292.313770314
292.073486913
291.824900753
291.584808504
291.369092402
291.190086213
291.051243839
290.948665079
290.876010404
290.826387545
290.793621462
290.772825536
290.760486638
290.754283997
290.752801711
290.755229739
290.761106662
290.770048097
290.78090163
290.79190069
290.801556702
290.808883059
290.813530169
290.815988115
290.817558594
290.820075588
290.825440939
290.835149145
290.849984665
290.869968983
290.89450422
290.922595633
290.953054258
290.98463892
291.016144187
291.046458454
291.074610428
291.099809728
291.121480366
291.139280229
291.153098475
291.163039402
291.1693977
291.172617913
291.173244815
291.171873834
291.169108634
291.165528801
291.161670845
291.158020065
291.15500667
291.153005024
291.15233501
291.153264479
291.156012178
291.160750782
291.167609804
291.176678208
291.188006629
291.201609214
291.217465192
291.235520336
291.255688469
291.277853118
291.301869431
291.327566361
291.354749152
291.383201995
291.412690653
291.442964796
291.473759695
291.504796857
291.535783293
291.566409041
291.596342312
291.625221484
291.65264409
291.678152348
291.701212478
291.721185156
291.737284474
291.748517126
291.75208409
291.747580244
291.734680082
291.710671434
291.671810909
291.613154715
291.528331324
291.409360628
291.246564771
291.028595757
290.742710043
290.375542985
289.914660459
289.350274747
288.671204902
299.87507687
294.795467485
293.524829303
293.215498057
293.140194611
293.121552054
293.116859498
293.115652213
293.115329084
293.115234609
293.11520108
293.115184795
293.115174065
293.115165618
293.115158448
293.115152181
293.115146635
293.115141692
293.115137266
293.115133285
293.115129691
293.115126434
293.115123471
293.115120766
293.115118289
293.115116012
293.115113913
293.115111971
293.115110169
293.115108493
293.11510693
293.115105467
293.115104093
293.115102799
293.115101575
293.115100415
293.115099311
293.115098257
293.115097249
293.115096279
293.115095345
293.115094441
293.115093564
293.11509271
293.115091876
293.115091058
293.115090253
293.115089458
293.115088671
293.115087889
293.115087108
293.115086328
293.115085544
293.115084754
293.115083957
293.115083148
293.115082326
293.115081489
293.115080632
293.115079754
293.115078851
293.115077921
293.115076959
293.115075963
293.115074929
293.115073853
293.11507273
293.115071557
293.115070328
293.115069037
293.11506768
293.11506625
293.11506474
293.115063142
293.115061448
293.115059648
293.115057733
293.11505569
293.115053506
293.115051166
293.115048654
293.11504595
293.115043029
293.11503986
293.115036388
293.115032485
293.115027778
293.115021069
293.115008551
293.114978574
293.11489738
293.114673189
293.114073451
293.112553026
293.108939477
293.10094271
293.084550893
293.05356119
292.999693719
292.913741817
292.787828066
292.618174856
292.407330302
292.164912836
291.906530509
291.65113477
291.417429574
291.220182129
291.067464313
290.95719745
290.8817446
290.832735343
290.802510874
290.7849605
290.775713045
290.771953321
290.772083739
290.775366693
290.781618836
290.790399286
290.800321459
290.811261524
290.823068136
290.835526188
290.848634452
290.862746751
290.878605345
290.897233594
290.919705698
290.946868349
290.979116689
291.016299832
291.057764657
291.102487851
291.149229468
291.196662366
291.243463831
291.288377353
291.330259021
291.368118459
291.401155022
291.428793077
291.450715905
291.466870562
291.477478697
291.483081537
291.484458471
291.482524969
291.478232056
291.472479999
291.466057439
291.459639462
291.453819089
291.449105201
291.445923486
291.444621055
291.445473176
291.448690509
291.454425831
291.462779749
291.473805313
291.487511636
291.503866758
291.52280006
291.54420454
291.567939186
291.593831663
291.621681381
291.65126298
291.682330148
291.714619552
291.747854545
291.781748178
291.816004998
291.85032097
291.884380831
291.917852772
291.950379894
291.981567016
292.010964657
292.038053619
292.062224939
292.082745553
292.098718148
292.109038007
292.111122505
292.106867391
292.094292326
292.070287504
292.030606497
291.969612724
291.880030357
291.752790702
291.577011169
291.339989705
291.027398086
290.62403457
290.115742308
289.492177548
288.738660817
300.092168257
294.910927873
293.566884844
293.228938845
293.1442405
293.122735068
293.117206488
293.115761455
293.115371606
293.115258267
293.115219063
293.11520069
293.115188843
293.115179548
293.115171618
293.115164636
293.115158413
293.115152829
293.115147798
293.115143248
293.115139118
293.115135357
293.11513192
293.11512877
293.115125874
293.115123201
293.115120728
293.115118433
293.115116298
293.115114305
293.11511244
293.115110689
293.115109039
293.115107479
293.115106001
293.115104595
293.115103254
293.115101971
293.115100739
293.115099553
293.115098407
293.115097296
293.115096216
293.115095162
293.115094131
293.115093118
293.11509212
293.115091133
293.115090155
293.115089181
293.115088209
293.115087236
293.115086258
293.115085273
293.115084278
293.115083268
293.115082242
293.115081196
293.115080127
293.115079031
293.115077904
293.115076744
293.115075545
293.115074304
293.115073016
293.115071677
293.115070281
293.115068823
293.115067297
293.115065696
293.115064014
293.115062242
293.115060373
293.115058397
293.115056304
293.115054082
293.115051719
293.1150492
293.11504651
293.11504363
293.11504054
293.115037216
293.115033628
293.115029737
293.115025474
293.115020676
293.115014867
293.115006526
293.114990865
293.114953372
293.114852478
293.114576516
293.113846177
293.112015647
293.107716065
293.098314333
293.079271596
293.043691934
292.982561025
292.886161261
292.746709215
292.56150729
292.335340815
292.08095801
291.81718645
291.565101255
291.34333585
291.164046139
291.031021269
290.94014848
290.882291815
290.848142179
290.829957266
290.821975773
290.820339798
290.822756622
290.828085384
290.835958168
290.845304111
290.855490556
290.867347212
290.881253131
290.897444922
290.916186786
290.937855207
290.962969247
290.992151639
291.02601887
291.065026743
291.109321675
291.158649598
291.21234942
291.269421575
291.328637084
291.388650427
291.448093974
291.505648493
291.560094093
291.610348552
291.655499545
291.694822923
291.72780298
291.754223313
291.773449743
291.784482343
291.788025112
291.785383377
291.778186199
291.768235877
291.757361181
291.746456041
291.735905985
291.726321314
291.718283281
291.712286232
291.708719612
291.707870094
291.709932111
291.715021074
291.723185962
291.734419928
291.748668557
291.765836082
291.785790156
291.808365821
291.833369198
291.860581294
291.889762149
291.920655392
291.952993114
291.986500753
292.020901487
292.055919469
292.091281175
292.126713995
292.161940461
292.196667968
292.230574897
292.263288167
292.294352949
292.323212674
292.349197537
292.371483859
292.389062417
292.400026932
292.404830839
292.404159355
292.395697843
292.375955066
292.34013873
292.281857396
292.192873351
292.063026297
291.880349936
291.630790374
291.298022141
290.863941625
290.310636514
289.623285619
288.783644226
300.288735374
295.019983707
293.607993976
293.242642282
293.148542033
293.124041631
293.117601488
293.115887078
293.115418939
293.115282864
293.115236816
293.11521609
293.115203142
293.115193092
293.115184506
293.115176906
293.115170088
293.115163932
293.115158353
293.115153279
293.115148652
293.115144418
293.115140533
293.115136957
293.115133657
293.115130602
293.115127765
293.115125125
293.115122661
293.115120355
293.11511819
293.115116151
293.115114225
293.1151124
293.115110666
293.115109014
293.115107434
293.115105919
293.115104461
293.115103056
293.115101695
293.115100374
293.115099087
293.115097831
293.115096599
293.115095388
293.115094193
293.115093011
293.115091838
293.11509067
293.115089503
293.115088334
293.115087159
293.115085975
293.115084778
293.115083565
293.115082332
293.115081075
293.115079789
293.115078473
293.11507712
293.115075726
293.115074288
293.1150728
293.115071256
293.115069652
293.115067981
293.115066236
293.115064412
293.115062499
293.115060491
293.115058378
293.115056149
293.115053795
293.115051303
293.11504866
293.115045852
293.11504286
293.115039667
293.115036252
293.11503259
293.115028653
293.115024407
293.115019808
293.115014777
293.115009136
293.115002369
293.114992851
293.114975483
293.1149349
293.114827278
293.114535419
293.11376745
293.111851317
293.107367833
293.097595112
293.077849846
293.041021555
292.977818982
292.878258963
292.734494363
292.544255787
292.313472355
292.056638709
291.794326767
291.548454864
291.336958621
291.169915118
291.048594567
290.967434416
290.91800555
290.891685789
290.880548463
290.87892654
290.883135407
290.891044464
290.901151025
290.912012607
290.923946409
290.937767028
290.95400073
290.9731129
290.995549152
291.021760977
291.052211109
291.087350112
291.127557272
291.173051869
291.223796872
291.27942571
291.339217729
291.402131088
291.466882741
291.532054306
291.596203429
291.657967752
291.716155585
291.769819507
291.818307149
291.861295552
291.898504468
291.929214207
291.953387507
291.971879408
291.986291363
291.996733988
292.002899977
292.004482316
292.001347742
291.993647931
291.983085339
291.971838425
291.960581395
291.950123125
291.941229285
291.934546629
291.930574785
291.929662794
291.93202176
291.93774432
291.946826087
291.959185761
291.974682231
291.993128409
292.014302197
292.037955312
292.063820698
292.091619177
292.121065786
292.15187604
292.183772078
292.216488455
292.249777093
292.283410855
292.317185668
292.350918453
292.384438043
292.417577695
292.450156834
292.481896643
292.512383946
292.541115859
292.567261432
292.588584668
292.604239026
292.61658327
292.62477734
292.626224337
292.616952347
292.591407475
292.542197031
292.459950646
292.333401222
292.149883079
291.894243203
291.547888325
291.088933271
290.494323403
289.743345
288.815056325
300.467526656
295.123098229
293.648115996
293.256543266
293.153040951
293.125446062
293.118035538
293.116026162
293.115470056
293.115307924
293.115254024
293.115230722
293.115216699
293.115205989
293.115196855
293.115188735
293.115181409
293.115174756
293.115168693
293.115163151
293.115158071
293.115153404
293.115149103
293.11514513
293.11514145
293.115138032
293.115134848
293.115131876
293.115129095
293.115126485
293.115124028
293.115121709
293.115119513
293.115117427
293.115115442
293.115113545
293.115111729
293.115109984
293.115108304
293.115106679
293.115105105
293.115103575
293.115102083
293.115100623
293.115099192
293.115097782
293.115096391
293.115095014
293.115093646
293.115092283
293.115090922
293.115089557
293.115088185
293.115086802
293.115085404
293.115083987
293.115082547
293.115081078
293.115079578
293.115078041
293.115076463
293.115074838
293.115073161
293.115071427
293.115069629
293.115067762
293.115065818
293.11506379
293.11506167
293.115059449
293.115057119
293.115054668
293.115052086
293.11504936
293.115046477
293.115043421
293.115040175
293.115036721
293.115033038
293.115029101
293.115024882
293.115020352
293.115015471
293.11501019
293.11500443
293.114998015
293.114990456
293.11498023
293.114962586
293.11492322
293.114821307
293.114547511
293.113828917
293.112035056
293.107828309
293.098626205
293.079944225
293.044888235
292.984300572
292.88812921
292.748225486
292.561943407
292.335044085
292.082218669
291.8244066
291.583630518
291.377417977
291.215171758
291.09775584
291.019759141
290.972736758
290.94831288
290.939754045
290.941494825
290.949375767
290.960514554
290.973497512
290.9882408
291.004887676
291.023818964
291.045517144
291.070493608
291.099246193
291.132227767
291.169811367
291.212242449
291.259576294
291.311608527
291.367815499
291.427324329
291.48892779
291.551149063
291.612351162
291.670879626
291.725225037
291.774190391
291.817044148
291.853636008
291.884438009
291.91135154
291.936701383
291.962517172
291.989104809
292.015997819
292.042447004
292.067546851
292.090358315
292.109989398
292.125616733
292.136462083
292.141724175
292.141344271
292.137669643
292.132410703
292.126432818
292.120700625
292.116082427
292.113302678
292.112921149
292.115327006
292.120748352
292.129271964
292.140867228
292.155410785
292.172709462
292.192520389
292.214567948
292.23855783
292.264188728
292.291162257
292.319191489
292.348008519
292.377371711
292.407073534
292.436950182
292.466896328
292.496829324
292.526718554
292.556879063
292.586830846
292.615985809
292.643703484
292.669275721
292.693024677
292.715579542
292.737621234
292.758430477
292.775404831
292.783778037
292.776429244
292.744067907
292.675576089
292.558415159
292.380005735
292.124699399
291.771509576
291.294065202
290.663221214
289.851828695
288.838007657
300.631007732
295.220880899
293.68740296
293.270882018
293.157712204
293.126928974
293.118501904
293.116176772
293.115524422
293.115333264
293.115270569
293.115244466
293.115229383
293.115218099
293.115208514
293.11519997
293.115192221
293.115185147
293.115178665
293.115172711
293.11516723
293.115162171
293.115157492
293.115153154
293.115149122
293.115145365
293.115141855
293.11513857
293.115135488
293.115132588
293.115129851
293.115127261
293.115124804
293.115122466
293.115120236
293.115118102
293.115116055
293.115114086
293.115112186
293.115110348
293.115108564
293.115106828
293.115105133
293.115103474
293.115101845
293.11510024
293.115098655
293.115097085
293.115095524
293.115093969
293.115092414
293.115090856
293.115089289
293.11508771
293.115086113
293.115084494
293.115082849
293.115081173
293.11507946
293.115077706
293.115075905
293.115074052
293.11507214
293.115070164
293.115068117
293.115065991
293.115063779
293.115061474
293.115059065
293.115056543
293.115053898
293.115051119
293.115048192
293.115045105
293.115041842
293.115038385
293.115034718
293.115030817
293.115026661
293.115022223
293.115017472
293.115012374
293.115006889
293.115000964
293.114994522
293.114987404
293.114979189
293.114968598
293.114951661
293.114916405
293.114828521
293.114595572
293.113985129
293.112455414
293.108844209
293.100876534
293.084532363
293.053492222
292.999113639
292.911519174
292.782132556
292.607241085
292.39118451
292.147324021
291.895675149
291.657811709
291.451269401
291.285963296
291.163792919
291.080723897
291.02967685
291.002907576
290.993418533
290.995552899
291.005144488
291.019410293
291.036729812
291.056375939
291.078203382
291.102417566
291.129404132
291.159606432
291.193438675
291.231218947
291.27310895
291.319053351
291.368719186
291.421443943
291.476207184
291.531642857
291.586106895
291.637808319
291.685003329
291.726240826
291.760632806
291.788101969
291.809528777
291.827128527
291.845883668
291.86854759
291.895783817
291.927306654
291.962217149
291.999294974
292.037230367
292.074772186
292.110812972
292.144426744
292.174868249
292.201541503
292.223937605
292.241528369
292.253520405
292.260160497
292.26348924
292.265004907
292.265453661
292.265680892
292.266467011
292.268472407
292.272215814
292.278068402
292.286256964
292.29687823
292.30991805
292.325273638
292.342775521
292.362207951
292.383326845
292.405875443
292.429598079
292.454252214
292.479620846
292.505562638
292.532019894
292.55946504
292.587596409
292.61562572
292.642444006
292.667881992
292.692085621
292.715164022
292.737259406
292.758739252
292.780362903
292.803181507
292.8279093
292.854250994
292.878813591
292.893102983
292.884216815
292.836327944
292.734438467
292.56682596
292.318124863
291.964878853
291.475686422
290.814630487
289.947913441
288.855280395
300.781177492
295.313652861
293.725409516
293.284703399
293.162400227
293.128459829
293.118993682
293.116337332
293.115581722
293.115358841
293.115286442
293.115257301
293.115241152
293.115229362
293.115219413
293.11521053
293.115202439
293.115195015
293.115188179
293.11518187
293.115176037
293.115170632
293.115165613
293.115160944
293.115156589
293.11515252
293.115148708
293.11514513
293.115141766
293.115138591
293.115135588
293.115132741
293.115130034
293.115127454
293.115124988
293.115122626
293.115120356
293.115118169
293.115116057
293.11511401
293.115112022
293.115110085
293.115108192
293.115106338
293.115104516
293.11510272
293.115100945
293.115099185
293.115097436
293.115095692
293.115093948
293.115092199
293.115090441
293.115088669
293.115086877
293.115085061
293.115083215
293.115081334
293.115079414
293.115077447
293.115075428
293.115073352
293.115071211
293.115068999
293.115066708
293.115064331
293.115061858
293.115059282
293.115056593
293.115053779
293.11505083
293.115047733
293.115044474
293.115041039
293.11503741
293.11503357
293.115029498
293.115025172
293.115020566
293.115015652
293.115010398
293.115004766
293.114998714
293.114992189
293.114985116
293.11497736
293.114968584
293.114957804
293.114941994
293.114912005
293.114841452
293.114658595
293.114181034
293.112977954
293.110110517
293.103705751
293.090376014
293.06463841
293.018706224
292.943200508
292.829226293
292.671657989
292.47250013
292.242489235
291.999515562
291.764098665
291.553976263
291.380355601
291.247103693
291.152301838
291.090665686
291.055642353