/*--------------------------------*- C++ -*----------------------------------*\
  =========                 |
  \\      /  F ield         | OpenFOAM: The Open Source CFD Toolbox
   \\    /   O peration     | Website:  https://openfoam.org
    \\  /    A nd           | Version:  12
     \\/     M anipulation  |
\*---------------------------------------------------------------------------*/
FoamFile
{
    format      ascii;
    class       volScalarField;
    location    "10";
    object      T;
}
// * * * * * * * * * * * * * * * * * * * * * * * * * * * * * * * * * * * * * //

dimensions      [0 0 0 1 0 0 0];

internalField   nonuniform List<scalar> 
40000
(
298.486
294.3
293.407
293.195
293.139
293.123
293.118
293.116
293.115
293.115
293.115
293.115
293.115
293.115
293.115
293.115
293.115
293.115
293.115
293.115
293.115
293.115
293.115
293.115
293.115
293.115
293.115
293.115
293.115
293.115
293.115
293.115
293.115
293.115
293.115
293.115
293.115
293.115
293.115
293.115
293.115
293.115
293.115
293.115
293.115
293.115
293.115
293.115
293.115
293.115
293.115
293.115
293.115
293.115
293.115
293.115
293.115
293.115
293.115
293.115
293.115
293.115
293.115
293.115
293.115
293.115
293.115
293.115
293.115
293.115
293.115
293.115
293.115
293.115
293.115
293.115
293.115
293.115
293.115
293.115
293.115
293.115
293.115
293.115
293.115
293.115
293.115
293.115
293.115
293.115
293.115
293.115
293.115
293.115
293.115
293.115
293.115
293.115
293.114
293.113
293.111
293.106
293.099
293.086
293.067
293.039
293.003
292.955
292.897
292.824
292.739
292.643
292.54
292.435
292.33
292.23
292.135
292.048
291.969
291.898
291.835
291.779
291.73
291.686
291.644
291.604
291.565
291.524
291.482
291.436
291.386
291.331
291.271
291.206
291.137
291.063
290.985
290.905
290.823
290.742
290.663
290.591
290.527
290.473
290.431
290.4
290.378
290.363
290.353
290.347
290.342
290.338
290.335
290.331
290.327
290.323
290.318
290.313
290.307
290.301
290.295
290.288
290.281
290.273
290.265
290.256
290.248
290.239
290.23
290.22
290.211
290.202
290.192
290.183
290.173
290.164
290.154
290.144
290.134
290.125
290.115
290.105
290.095
290.084
290.074
290.063
290.052
290.041
290.03
290.014
289.993
289.964
289.925
289.874
289.806
289.717
289.601
289.443
289.156
288.78
298.759
294.313
293.384
293.181
293.133
293.12
293.117
293.116
293.115
293.115
293.115
293.115
293.115
293.115
293.115
293.115
293.115
293.115
293.115
293.115
293.115
293.115
293.115
293.115
293.115
293.115
293.115
293.115
293.115
293.115
293.115
293.115
293.115
293.115
293.115
293.115
293.115
293.115
293.115
293.115
293.115
293.115
293.115
293.115
293.115
293.115
293.115
293.115
293.115
293.115
293.115
293.115
293.115
293.115
293.115
293.115
293.115
293.115
293.115
293.115
293.115
293.115
293.115
293.115
293.115
293.115
293.115
293.115
293.115
293.115
293.115
293.115
293.115
293.115
293.115
293.115
293.115
293.115
293.115
293.115
293.115
293.115
293.115
293.115
293.115
293.115
293.115
293.115
293.115
293.115
293.115
293.115
293.115
293.115
293.115
293.115
293.114
293.112
293.109
293.101
293.088
293.065
293.029
292.976
292.906
292.817
292.71
292.587
292.451
292.303
292.153
292.009
291.877
291.761
291.661
291.576
291.506
291.449
291.403
291.367
291.34
291.321
291.307
291.296
291.284
291.27
291.25
291.222
291.182
291.13
291.067
290.997
290.925
290.855
290.789
290.728
290.673
290.624
290.581
290.545
290.515
290.492
290.475
290.462
290.453
290.447
290.442
290.438
290.435
290.431
290.428
290.424
290.421
290.417
290.413
290.409
290.405
290.401
290.397
290.393
290.39
290.386
290.383
290.381
290.379
290.377
290.375
290.374
290.374
290.374
290.374
290.375
290.377
290.378
290.381
290.383
290.386
290.39
290.393
290.397
290.402
290.406
290.41
290.414
290.418
290.422
290.424
290.424
290.414
290.396
290.367
290.324
290.263
290.178
290.064
289.913
289.716
289.461
289.13
288.674
299.076
294.42
293.403
293.182
293.132
293.12
293.116
293.116
293.115
293.115
293.115
293.115
293.115
293.115
293.115
293.115
293.115
293.115
293.115
293.115
293.115
293.115
293.115
293.115
293.115
293.115
293.115
293.115
293.115
293.115
293.115
293.115
293.115
293.115
293.115
293.115
293.115
293.115
293.115
293.115
293.115
293.115
293.115
293.115
293.115
293.115
293.115
293.115
293.115
293.115
293.115
293.115
293.115
293.115
293.115
293.115
293.115
293.115
293.115
293.115
293.115
293.115
293.115
293.115
293.115
293.115
293.115
293.115
293.115
293.115
293.115
293.115
293.115
293.115
293.115
293.115
293.115
293.115
293.115
293.115
293.115
293.115
293.115
293.115
293.115
293.115
293.115
293.115
293.115
293.115
293.115
293.115
293.115
293.115
293.114
293.113
293.11
293.103
293.09
293.067
293.027
292.966
292.879
292.763
292.62
292.453
292.27
292.076
291.881
291.697
291.534
291.396
291.283
291.193
291.123
291.07
291.031
291.003
290.985
290.976
290.973
290.975
290.978
290.982
290.986
290.985
290.974
290.951
290.916
290.873
290.826
290.78
290.737
290.701
290.672
290.649
290.633
290.621
290.615
290.612
290.611
290.613
290.615
290.617
290.619
290.62
290.62
290.619
290.617
290.615
290.612
290.609
290.606
290.602
290.599
290.597
290.595
290.594
290.593
290.593
290.595
290.597
290.6
290.605
290.61
290.617
290.625
290.634
290.644
290.655
290.667
290.68
290.693
290.708
290.723
290.739
290.755
290.772
290.789
290.805
290.822
290.838
290.853
290.866
290.878
290.887
290.891
290.884
290.869
290.842
290.8
290.739
290.653
290.536
290.378
290.171
289.902
289.561
289.143
288.594
299.368
294.546
293.438
293.191
293.134
293.12
293.116
293.116
293.115
293.115
293.115
293.115
293.115
293.115
293.115
293.115
293.115
293.115
293.115
293.115
293.115
293.115
293.115
293.115
293.115
293.115
293.115
293.115
293.115
293.115
293.115
293.115
293.115
293.115
293.115
293.115
293.115
293.115
293.115
293.115
293.115
293.115
293.115
293.115
293.115
293.115
293.115
293.115
293.115
293.115
293.115
293.115
293.115
293.115
293.115
293.115
293.115
293.115
293.115
293.115
293.115
293.115
293.115
293.115
293.115
293.115
293.115
293.115
293.115
293.115
293.115
293.115
293.115
293.115
293.115
293.115
293.115
293.115
293.115
293.115
293.115
293.115
293.115
293.115
293.115
293.115
293.115
293.115
293.115
293.115
293.115
293.115
293.115
293.114
293.113
293.109
293.102
293.088
293.061
293.014
292.942
292.837
292.697
292.522
292.319
292.098
291.869
291.648
291.447
291.277
291.14
291.035
290.956
290.899
290.859
290.831
290.814
290.804
290.801
290.802
290.808
290.816
290.827
290.838
290.844
290.844
290.837
290.823
290.804
290.784
290.766
290.753
290.745
290.743
290.746
290.754
290.766
290.78
290.795
290.811
290.826
290.839
290.851
290.86
290.867
290.872
290.874
290.875
290.874
290.872
290.87
290.867
290.864
290.861
290.859
290.858
290.858
290.859
290.861
290.866
290.871
290.879
290.888
290.899
290.911
290.926
290.942
290.96
290.979
290.999
291.021
291.044
291.068
291.092
291.117
291.143
291.168
291.193
291.218
291.242
291.265
291.286
291.305
291.321
291.334
291.341
291.339
291.328
291.307
291.273
291.22
291.145
291.04
290.897
290.705
290.453
290.129
289.721
289.217
288.585
299.635
294.674
293.482
293.203
293.137
293.121
293.117
293.116
293.115
293.115
293.115
293.115
293.115
293.115
293.115
293.115
293.115
293.115
293.115
293.115
293.115
293.115
293.115
293.115
293.115
293.115
293.115
293.115
293.115
293.115
293.115
293.115
293.115
293.115
293.115
293.115
293.115
293.115
293.115
293.115
293.115
293.115
293.115
293.115
293.115
293.115
293.115
293.115
293.115
293.115
293.115
293.115
293.115
293.115
293.115
293.115
293.115
293.115
293.115
293.115
293.115
293.115
293.115
293.115
293.115
293.115
293.115
293.115
293.115
293.115
293.115
293.115
293.115
293.115
293.115
293.115
293.115
293.115
293.115
293.115
293.115
293.115
293.115
293.115
293.115
293.115
293.115
293.115
293.115
293.115
293.115
293.115
293.114
293.113
293.111
293.105
293.093
293.069
293.028
292.959
292.856
292.713
292.531
292.314
292.074
291.825
291.585
291.369
291.19
291.051
290.949
290.876
290.826
290.794
290.773
290.761
290.754
290.753
290.755
290.761
290.77
290.781
290.792
290.802
290.809
290.814
290.816
290.818
290.82
290.825
290.835
290.85
290.87
290.895
290.923
290.953
290.985
291.016
291.046
291.075
291.1
291.121
291.139
291.153
291.163
291.169
291.173
291.173
291.172
291.169
291.166
291.162
291.158
291.155
291.153
291.152
291.153
291.156
291.161
291.168
291.177
291.188
291.202
291.217
291.236
291.256
291.278
291.302
291.328
291.355
291.383
291.413
291.443
291.474
291.505
291.536
291.566
291.596
291.625
291.653
291.678
291.701
291.721
291.737
291.749
291.752
291.748
291.735
291.711
291.672
291.613
291.528
291.409
291.247
291.029
290.743
290.376
289.915
289.35
288.671
299.875
294.795
293.525
293.215
293.14
293.122
293.117
293.116
293.115
293.115
293.115
293.115
293.115
293.115
293.115
293.115
293.115
293.115
293.115
293.115
293.115
293.115
293.115
293.115
293.115
293.115
293.115
293.115
293.115
293.115
293.115
293.115
293.115
293.115
293.115
293.115
293.115
293.115
293.115
293.115
293.115
293.115
293.115
293.115
293.115
293.115
293.115
293.115
293.115
293.115
293.115
293.115
293.115
293.115
293.115
293.115
293.115
293.115
293.115
293.115
293.115
293.115
293.115
293.115
293.115
293.115
293.115
293.115
293.115
293.115
293.115
293.115
293.115
293.115
293.115
293.115
293.115
293.115
293.115
293.115
293.115
293.115
293.115
293.115
293.115
293.115
293.115
293.115
293.115
293.115
293.115
293.115
293.114
293.113
293.109
293.101
293.085
293.054
293
292.914
292.788
292.618
292.407
292.165
291.907
291.651
291.418
291.22
291.068
290.957
290.882
290.833
290.803
290.785
290.776
290.772
290.772
290.775
290.782
290.79
290.8
290.811
290.823
290.836
290.849
290.863
290.879
290.897
290.92
290.947
290.979
291.016
291.058
291.102
291.149
291.197
291.243
291.288
291.33
291.368
291.401
291.429
291.451
291.467
291.477
291.483
291.484
291.483
291.478
291.472
291.466
291.46
291.454
291.449
291.446
291.445
291.445
291.449
291.454
291.463
291.474
291.488
291.504
291.523
291.544
291.568
291.594
291.622
291.651
291.682
291.715
291.748
291.782
291.816
291.85
291.884
291.918
291.95
291.982
292.011
292.038
292.062
292.083
292.099
292.109
292.111
292.107
292.094
292.07
292.031
291.97
291.88
291.753
291.577
291.34
291.027
290.624
290.116
289.492
288.739
300.092
294.911
293.567
293.229
293.144
293.123
293.117
293.116
293.115
293.115
293.115
293.115
293.115
293.115
293.115
293.115
293.115
293.115
293.115
293.115
293.115
293.115
293.115
293.115
293.115
293.115
293.115
293.115
293.115
293.115
293.115
293.115
293.115
293.115
293.115
293.115
293.115
293.115
293.115
293.115
293.115
293.115
293.115
293.115
293.115
293.115
293.115
293.115
293.115
293.115
293.115
293.115
293.115
293.115
293.115
293.115
293.115
293.115
293.115
293.115
293.115
293.115
293.115
293.115
293.115
293.115
293.115
293.115
293.115
293.115
293.115
293.115
293.115
293.115
293.115
293.115
293.115
293.115
293.115
293.115
293.115
293.115
293.115
293.115
293.115
293.115
293.115
293.115
293.115
293.115
293.115
293.115
293.114
293.112
293.108
293.098
293.079
293.044
292.983
292.886
292.747
292.562
292.335
292.081
291.817
291.565
291.343
291.164
291.031
290.94
290.882
290.848
290.83
290.822
290.82
290.823
290.828
290.836
290.845
290.856
290.867
290.881
290.897
290.916
290.938
290.963
290.992
291.026
291.065
291.109
291.159
291.212
291.269
291.329
291.389
291.448
291.506
291.56
291.61
291.655
291.695
291.728
291.754
291.773
291.784
291.788
291.785
291.778
291.768
291.757
291.746
291.736
291.726
291.718
291.712
291.709
291.708
291.71
291.715
291.723
291.734
291.749
291.766
291.786
291.808
291.833
291.861
291.89
291.921
291.953
291.987
292.021
292.056
292.091
292.127
292.162
292.197
292.231
292.263
292.294
292.323
292.349
292.371
292.389
292.4
292.405
292.404
292.396
292.376
292.34
292.282
292.193
292.063
291.88
291.631
291.298
290.864
290.311
289.623
288.784
300.289
295.02
293.608
293.243
293.149
293.124
293.118
293.116
293.115
293.115
293.115
293.115
293.115
293.115
293.115
293.115
293.115
293.115
293.115
293.115
293.115
293.115
293.115
293.115
293.115
293.115
293.115
293.115
293.115
293.115
293.115
293.115
293.115
293.115
293.115
293.115
293.115
293.115
293.115
293.115
293.115
293.115
293.115
293.115
293.115
293.115
293.115
293.115
293.115
293.115
293.115
293.115
293.115
293.115
293.115
293.115
293.115
293.115
293.115
293.115
293.115
293.115
293.115
293.115
293.115
293.115
293.115
293.115
293.115
293.115
293.115
293.115
293.115
293.115
293.115
293.115
293.115
293.115
293.115
293.115
293.115
293.115
293.115
293.115
293.115
293.115
293.115
293.115
293.115
293.115
293.115
293.115
293.114
293.112
293.107
293.098
293.078
293.041
292.978
292.878
292.735
292.544
292.314
292.057
291.794
291.549
291.337
291.17
291.049
290.967
290.918
290.892
290.881
290.879
290.883
290.891
290.901
290.912
290.924
290.938
290.954
290.973
290.996
291.022
291.052
291.087
291.128
291.173
291.224
291.279
291.339
291.402
291.467
291.532
291.596
291.658
291.716
291.77
291.818
291.861
291.898
291.929
291.953
291.972
291.986
291.997
292.003
292.004
292.001
291.994
291.983
291.972
291.961
291.95
291.941
291.935
291.931
291.93
291.932
291.938
291.947
291.959
291.975
291.993
292.014
292.038
292.064
292.092
292.121
292.152
292.184
292.216
292.25
292.283
292.317
292.351
292.384
292.418
292.45
292.482
292.512
292.541
292.567
292.589
292.604
292.617
292.625
292.626
292.617
292.591
292.542
292.46
292.333
292.15
291.894
291.548
291.089
290.494
289.743
288.815
300.468
295.123
293.648
293.257
293.153
293.125
293.118
293.116
293.115
293.115
293.115
293.115
293.115
293.115
293.115
293.115
293.115
293.115
293.115
293.115
293.115
293.115
293.115
293.115
293.115
293.115
293.115
293.115
293.115
293.115
293.115
293.115
293.115
293.115
293.115
293.115
293.115
293.115
293.115
293.115
293.115
293.115
293.115
293.115
293.115
293.115
293.115
293.115
293.115
293.115
293.115
293.115
293.115
293.115
293.115
293.115
293.115
293.115
293.115
293.115
293.115
293.115
293.115
293.115
293.115
293.115
293.115
293.115
293.115
293.115
293.115
293.115
293.115
293.115
293.115
293.115
293.115
293.115
293.115
293.115
293.115
293.115
293.115
293.115
293.115
293.115
293.115
293.115
293.115
293.115
293.115
293.115
293.114
293.112
293.108
293.099
293.08
293.045
292.984
292.888
292.748
292.562
292.335
292.082
291.825
291.584
291.378
291.215
291.098
291.02
290.973
290.948
290.94
290.942
290.949
290.961
290.973
290.988
291.005
291.024
291.046
291.07
291.099
291.132
291.17
291.212
291.26
291.312
291.368
291.427
291.489
291.551
291.612
291.671
291.725
291.774
291.817
291.854
291.884
291.911
291.937
291.962
291.989
292.016
292.042
292.068
292.09
292.11
292.126
292.136
292.142
292.141
292.138
292.132
292.126
292.121
292.116
292.113
292.113
292.115
292.121
292.129
292.141
292.155
292.173
292.193
292.215
292.239
292.264
292.291
292.319
292.348
292.377
292.407
292.437
292.467
292.497
292.527
292.557
292.587
292.616
292.644
292.669
292.693
292.716
292.738
292.758
292.775
292.784
292.776
292.744
292.676
292.558
292.38
292.125
291.772
291.294
290.663
289.852
288.838
300.631
295.221
293.687
293.271
293.158
293.127
293.118
293.116
293.116
293.115
293.115
293.115
293.115
293.115
293.115
293.115
293.115
293.115
293.115
293.115
293.115
293.115
293.115
293.115
293.115
293.115
293.115
293.115
293.115
293.115
293.115
293.115
293.115
293.115
293.115
293.115
293.115
293.115
293.115
293.115
293.115
293.115
293.115
293.115
293.115
293.115
293.115
293.115
293.115
293.115
293.115
293.115
293.115
293.115
293.115
293.115
293.115
293.115
293.115
293.115
293.115
293.115
293.115
293.115
293.115
293.115
293.115
293.115
293.115
293.115
293.115
293.115
293.115
293.115
293.115
293.115
293.115
293.115
293.115
293.115
293.115
293.115
293.115
293.115
293.115
293.115
293.115
293.115
293.115
293.115
293.115
293.115
293.114
293.112
293.109
293.101
293.085
293.054
292.999
292.912
292.782
292.607
292.391
292.147
291.896
291.658
291.451
291.286
291.164
291.081
291.03
291.003
290.993
290.996
291.005
291.019
291.037
291.056
291.078
291.102
291.129
291.16
291.193
291.231
291.273
291.319
291.369
291.421
291.476
291.532
291.586
291.638
291.685
291.726
291.761
291.788
291.81
291.827
291.846
291.869
291.896
291.927
291.962
291.999
292.037
292.075
292.111
292.144
292.175
292.202
292.224
292.242
292.254
292.26
292.263
292.265
292.265
292.266
292.266
292.268
292.272
292.278
292.286
292.297
292.31
292.325
292.343
292.362
292.383
292.406
292.43
292.454
292.48
292.506
292.532
292.559
292.588
292.616
292.642
292.668
292.692
292.715
292.737
292.759
292.78
292.803
292.828
292.854
292.879
292.893
292.884
292.836
292.734
292.567
292.318
291.965
291.476
290.815
289.948
288.855
300.781
295.314
293.725
293.285
293.162
293.128
293.119
293.116
293.116
293.115
293.115
293.115
293.115
293.115
293.115
293.115
293.115
293.115
293.115
293.115
293.115
293.115
293.115
293.115
293.115
293.115
293.115
293.115
293.115
293.115
293.115
293.115
293.115
293.115
293.115
293.115
293.115
293.115
293.115
293.115
293.115
293.115
293.115
293.115
293.115
293.115
293.115
293.115
293.115
293.115
293.115
293.115
293.115
293.115
293.115
293.115
293.115
293.115
293.115
293.115
293.115
293.115
293.115
293.115
293.115
293.115
293.115
293.115
293.115
293.115
293.115
293.115
293.115
293.115
293.115
293.115
293.115
293.115
293.115
293.115
293.115
293.115
293.115
293.115
293.115
293.115
293.115
293.115
293.115
293.115
293.115
293.115
293.114
293.113
293.11
293.104
293.09
293.065
293.019
292.943
292.829
292.672
292.473
292.243
292
291.764
291.554
291.38
291.247
291.152
291.091
291.056
291.041
291.04
291.05
291.066
291.087
291.111
291.137
291.166
291.197
291.231
291.268
291.308
291.351
291.397
291.444
291.492
291.54
291.586
291.627
291.663
291.693
291.714
291.73
291.74
291.748
291.762
291.782
291.809
291.844
291.884
291.929
291.977
292.026
292.074
292.121
292.165
292.206
292.243
292.276
292.306
292.331
292.351
292.367
292.378
292.386
292.392
292.398
292.403
292.409
292.415
292.423
292.432
292.443
292.456
292.471
292.487
292.505
292.524
292.545
292.567
292.59
292.614
292.64
292.665
292.689
292.713
292.735
292.756
292.776
292.795
292.813
292.83
292.848
292.867
292.888
292.911
292.935
292.956
292.967
292.943
292.861
292.709
292.473
292.126
291.632
290.947
290.031
288.869
300.92
295.402
293.762
293.298
293.167
293.13
293.12
293.117
293.116
293.115
293.115
293.115
293.115
293.115
293.115
293.115
293.115
293.115
293.115
293.115
293.115
293.115
293.115
293.115
293.115
293.115
293.115
293.115
293.115
293.115
293.115
293.115
293.115
293.115
293.115
293.115
293.115
293.115
293.115
293.115
293.115
293.115
293.115
293.115
293.115
293.115
293.115
293.115
293.115
293.115
293.115
293.115
293.115
293.115
293.115
293.115
293.115
293.115
293.115
293.115
293.115
293.115
293.115
293.115
293.115
293.115
293.115
293.115
293.115
293.115
293.115
293.115
293.115
293.115
293.115
293.115
293.115
293.115
293.115
293.115
293.115
293.115
293.115
293.115
293.115
293.115
293.115
293.115
293.115
293.115
293.115
293.115
293.114
293.113
293.111
293.107
293.096
293.076
293.04
292.978
292.882
292.747
292.569
292.359
292.128
291.898
291.684
291.5
291.352
291.241
291.163
291.114
291.089
291.081
291.086
291.101
291.123
291.148
291.177
291.209
291.243
291.279
291.317
291.357
291.399
291.442
291.484
291.525
291.563
291.597
291.625
291.646
291.66
291.667
291.67
291.672
291.68
291.697
291.723
291.758
291.802
291.853
291.909
291.967
292.026
292.085
292.141
292.194
292.243
292.288
292.329
292.365
292.397
292.426
292.45
292.472
292.489
292.503
292.515
292.524
292.534
292.543
292.553
292.563
292.574
292.587
292.6
292.615
292.632
292.649
292.668
292.689
292.711
292.732
292.753
292.772
292.791
292.809
292.827
292.843
292.859
292.874
292.888
292.903
292.917
292.932
292.948
292.965
292.983
293
293.011
293.001
292.94
292.808
292.589
292.254
291.761
291.059
290.102
288.879
301.048
295.486
293.798
293.312
293.172
293.132
293.12
293.117
293.116
293.115
293.115
293.115
293.115
293.115
293.115
293.115
293.115
293.115
293.115
293.115
293.115
293.115
293.115
293.115
293.115
293.115
293.115
293.115
293.115
293.115
293.115
293.115
293.115
293.115
293.115
293.115
293.115
293.115
293.115
293.115
293.115
293.115
293.115
293.115
293.115
293.115
293.115
293.115
293.115
293.115
293.115
293.115
293.115
293.115
293.115
293.115
293.115
293.115
293.115
293.115
293.115
293.115
293.115
293.115
293.115
293.115
293.115
293.115
293.115
293.115
293.115
293.115
293.115
293.115
293.115
293.115
293.115
293.115
293.115
293.115
293.115
293.115
293.115
293.115
293.115
293.115
293.115
293.115
293.115
293.115
293.115
293.115
293.115
293.114
293.112
293.109
293.102
293.087
293.059
293.012
292.936
292.824
292.673
292.486
292.274
292.053
291.84
291.647
291.484
291.354
291.256
291.188
291.146
291.125
291.12
291.129
291.146
291.171
291.2
291.232
291.266
291.303
291.341
291.379
291.418
291.456
291.493
291.526
291.555
291.579
291.595
291.605
291.609
291.608
291.607
291.609
291.621
291.644
291.678
291.723
291.778
291.84
291.906
291.975
292.044
292.111
292.175
292.235
292.29
292.341
292.387
292.428
292.465
292.498
292.527
292.553
292.576
292.596
292.614
292.63
292.644
292.657
292.669
292.681
292.694
292.707
292.721
292.735
292.751
292.767
292.784
292.8
292.816
292.832
292.847
292.863
292.877
292.891
292.905
292.918
292.93
292.942
292.953
292.965
292.976
292.987
292.999
293.011
293.023
293.034
293.038
293.026
292.981
292.87
292.671
292.353
291.866
291.153
290.16
288.887
301.168
295.566
293.833
293.325
293.177
293.133
293.121
293.117
293.116
293.115
293.115
293.115
293.115
293.115
293.115
293.115
293.115
293.115
293.115
293.115
293.115
293.115
293.115
293.115
293.115
293.115
293.115
293.115
293.115
293.115
293.115
293.115
293.115
293.115
293.115
293.115
293.115
293.115
293.115
293.115
293.115
293.115
293.115
293.115
293.115
293.115
293.115
293.115
293.115
293.115
293.115
293.115
293.115
293.115
293.115
293.115
293.115
293.115
293.115
293.115
293.115
293.115
293.115
293.115
293.115
293.115
293.115
293.115
293.115
293.115
293.115
293.115
293.115
293.115
293.115
293.115
293.115
293.115
293.115
293.115
293.115
293.115
293.115
293.115
293.115
293.115
293.115
293.115
293.115
293.115
293.115
293.115
293.115
293.114
293.113
293.111
293.106
293.096
293.076
293.041
292.984
292.896
292.773
292.615
292.427
292.223
292.016
291.819
291.644
291.496
291.377
291.287
291.223
291.183
291.162
291.158
291.166
291.184
291.209
291.238
291.271
291.306
291.341
291.377
291.413
291.446
291.477
291.504
291.526
291.541
291.551
291.554
291.553
291.55
291.549
291.557
291.576
291.607
291.652
291.709
291.775
291.848
291.925
292.003
292.08
292.154
292.224
292.289
292.349
292.403
292.452
292.496
292.535
292.57
292.601
292.629
292.654
292.677
292.697
292.715
292.732
292.748
292.763
292.777
292.791
292.804
292.817
292.83
292.844
292.857
292.87
292.883
292.896
292.908
292.92
292.932
292.944
292.955
292.966
292.976
292.985
292.995
293.003
293.012
293.02
293.029
293.037
293.045
293.052
293.057
293.055
293.038
292.995
292.903
292.725
292.425
291.947
291.228
290.207
288.894
301.279
295.643
293.866
293.338
293.181
293.135
293.121
293.117
293.116
293.115
293.115
293.115
293.115
293.115
293.115
293.115
293.115
293.115
293.115
293.115
293.115
293.115
293.115
293.115
293.115
293.115
293.115
293.115
293.115
293.115
293.115
293.115
293.115
293.115
293.115
293.115
293.115
293.115
293.115
293.115
293.115
293.115
293.115
293.115
293.115
293.115
293.115
293.115
293.115
293.115
293.115
293.115
293.115
293.115
293.115
293.115
293.115
293.115
293.115
293.115
293.115
293.115
293.115
293.115
293.115
293.115
293.115
293.115
293.115
293.115
293.115
293.115
293.115
293.115
293.115
293.115
293.115
293.115
293.115
293.115
293.115
293.115
293.115
293.115
293.115
293.115
293.115
293.115
293.115
293.115
293.115
293.115
293.115
293.114
293.114
293.112
293.109
293.103
293.089
293.065
293.024
292.958
292.863
292.735
292.577
292.396
292.203
292.011
291.831
291.67
291.532
291.42
291.332
291.269
291.226
291.202
291.195
291.2
291.214
291.236
291.263
291.293
291.325
291.357
291.388
291.417
291.443
291.465
291.482
291.493
291.498
291.499
291.498
291.497
291.502
291.518
291.548
291.592
291.649
291.718
291.796
291.88
291.966
292.051
292.134
292.213
292.287
292.354
292.416
292.472
292.522
292.566
292.606
292.642
292.673
292.701
292.727
292.749
292.77
292.788
292.806
292.821
292.836
292.85
292.863
292.876
292.888
292.9
292.912
292.923
292.934
292.945
292.955
292.965
292.975
292.985
292.994
293.002
293.011
293.018
293.026
293.033
293.04
293.046
293.052
293.058
293.064
293.069
293.072
293.072
293.066
293.045
293.001
292.918
292.758
292.475
292.009
291.288
290.245
288.899
301.384
295.717
293.899
293.351
293.186
293.137
293.122
293.117
293.116
293.115
293.115
293.115
293.115
293.115
293.115
293.115
293.115
293.115
293.115
293.115
293.115
293.115
293.115
293.115
293.115
293.115
293.115
293.115
293.115
293.115
293.115
293.115
293.115
293.115
293.115
293.115
293.115
293.115
293.115
293.115
293.115
293.115
293.115
293.115
293.115
293.115
293.115
293.115
293.115
293.115
293.115
293.115
293.115
293.115
293.115
293.115
293.115
293.115
293.115
293.115
293.115
293.115
293.115
293.115
293.115
293.115
293.115
293.115
293.115
293.115
293.115
293.115
293.115
293.115
293.115
293.115
293.115
293.115
293.115
293.115
293.115
293.115
293.115
293.115
293.115
293.115
293.115
293.115
293.115
293.115
293.115
293.115
293.115
293.115
293.114
293.113
293.112
293.107
293.099
293.083
293.055
293.009
292.939
292.841
292.714
292.562
292.391
292.212
292.036
291.87
291.72
291.59
291.481
291.393
291.327
291.279
291.25
291.235
291.233
291.242
291.257
291.279
291.303
291.329
291.354
291.378
291.4
291.418
291.431
291.44
291.445
291.447
291.449
291.455
291.472
291.501
291.545
291.604
291.675
291.757
291.846
291.938
292.031
292.121
292.207
292.288
292.362
292.43
292.491
292.546
292.595
292.638
292.677
292.711
292.742
292.769
292.793
292.815
292.834
292.852
292.868
292.883
292.897
292.91
292.922
292.933
292.944
292.954
292.964
292.974
292.983
292.992
293
293.008
293.016
293.023
293.03
293.037
293.043
293.049
293.055
293.06
293.065
293.07
293.074
293.078
293.082
293.084
293.085
293.082
293.073
293.05
293.005
292.923
292.777
292.509
292.055
291.334
290.276
288.904
301.482
295.788
293.931
293.364
293.191
293.138
293.122
293.117
293.116
293.116
293.115
293.115
293.115
293.115
293.115
293.115
293.115
293.115
293.115
293.115
293.115
293.115
293.115
293.115
293.115
293.115
293.115
293.115
293.115
293.115
293.115
293.115
293.115
293.115
293.115
293.115
293.115
293.115
293.115
293.115
293.115
293.115
293.115
293.115
293.115
293.115
293.115
293.115
293.115
293.115
293.115
293.115
293.115
293.115
293.115
293.115
293.115
293.115
293.115
293.115
293.115
293.115
293.115
293.115
293.115
293.115
293.115
293.115
293.115
293.115
293.115
293.115
293.115
293.115
293.115
293.115
293.115
293.115
293.115
293.115
293.115
293.115
293.115
293.115
293.115
293.115
293.115
293.115
293.115
293.115
293.115
293.115
293.115
293.115
293.115
293.114
293.113
293.11
293.105
293.096
293.078
293.047
292.998
292.928
292.831
292.71
292.567
292.41
292.247
292.085
291.932
291.792
291.668
291.561
291.473
291.402
291.348
291.31
291.287
291.275
291.274
291.281
291.293
291.309
291.327
291.345
291.361
291.375
291.387
291.396
291.402
291.409
291.42
291.439
291.471
291.517
291.578
291.652
291.736
291.829
291.925
292.023
292.118
292.209
292.295
292.374
292.446
292.512
292.57
292.622
292.668
292.709
292.745
292.777
292.805
292.831
292.853
292.873
292.891
292.907
292.921
292.935
292.947
292.958
292.969
292.979
292.988
292.997
293.005
293.013
293.02
293.027
293.034
293.04
293.046
293.052
293.057
293.062
293.067
293.071
293.075
293.079
293.083
293.086
293.089
293.092
293.094
293.095
293.094
293.089
293.077
293.053
293.008
292.927
292.785
292.532
292.089
291.37
290.3
288.908
301.575
295.856
293.963
293.376
293.196
293.14
293.123
293.118
293.116
293.116
293.115
293.115
293.115
293.115
293.115
293.115
293.115
293.115
293.115
293.115
293.115
293.115
293.115
293.115
293.115
293.115
293.115
293.115
293.115
293.115
293.115
293.115
293.115
293.115
293.115
293.115
293.115
293.115
293.115
293.115
293.115
293.115
293.115
293.115
293.115
293.115
293.115
293.115
293.115
293.115
293.115
293.115
293.115
293.115
293.115
293.115
293.115
293.115
293.115
293.115
293.115
293.115
293.115
293.115
293.115
293.115
293.115
293.115
293.115
293.115
293.115
293.115
293.115
293.115
293.115
293.115
293.115
293.115
293.115
293.115
293.115
293.115
293.115
293.115
293.115
293.115
293.115
293.115
293.115
293.115
293.115
293.115
293.115
293.115
293.115
293.114
293.114
293.112
293.11
293.104
293.093
293.073
293.042
292.993
292.925
292.833
292.721
292.591
292.449
292.302
292.155
292.015
291.885
291.767
291.663
291.573
291.499
291.438
291.392
291.359
291.337
291.326
291.322
291.324
291.33
291.339
291.35
291.36
291.37
291.38
291.391
291.406
291.43
291.466
291.516
291.579
291.655
291.741
291.835
291.934
292.033
292.131
292.225
292.313
292.395
292.47
292.537
292.597
292.651
292.698
292.74
292.777
292.81
292.838
292.864
292.886
292.906
292.924
292.939
292.953
292.966
292.978
292.988
292.998
293.006
293.015
293.022
293.029
293.036
293.042
293.048
293.053
293.059
293.063
293.068
293.072
293.076
293.08
293.083
293.086
293.089
293.092
293.094
293.097
293.099
293.1
293.101
293.101
293.099
293.093
293.081
293.056
293.011
292.93
292.79
292.545
292.112
291.397
290.319
288.912
301.662
295.922
293.993
293.389
293.201
293.142
293.124
293.118
293.116
293.116
293.115
293.115
293.115
293.115
293.115
293.115
293.115
293.115
293.115
293.115
293.115
293.115
293.115
293.115
293.115
293.115
293.115
293.115
293.115
293.115
293.115
293.115
293.115
293.115
293.115
293.115
293.115
293.115
293.115
293.115
293.115
293.115
293.115
293.115
293.115
293.115
293.115
293.115
293.115
293.115
293.115
293.115
293.115
293.115
293.115
293.115
293.115
293.115
293.115
293.115
293.115
293.115
293.115
293.115
293.115
293.115
293.115
293.115
293.115
293.115
293.115
293.115
293.115
293.115
293.115
293.115
293.115
293.115
293.115
293.115
293.115
293.115
293.115
293.115
293.115
293.115
293.115
293.115
293.115
293.115
293.115
293.115
293.115