/*--------------------------------*- C++ -*----------------------------------*\
  =========                 |
  \\      /  F ield         | OpenFOAM: The Open Source CFD Toolbox
   \\    /   O peration     | Website:  https://openfoam.org
    \\  /    A nd           | Version:  12
     \\/     M anipulation  |
\*---------------------------------------------------------------------------*/
FoamFile
{
    format      ascii;
    class       volScalarField;
    location    "10";
    object      T;
}
// * * * * * * * * * * * * * * * * * * * * * * * * * * * * * * * * * * * * * //

dimensions      [0 0 0 1 0 0 0];

internalField   nonuniform List<scalar> 
40000
(
298.48601040467878
294.30012637851797
293.40655836494756
293.19479335454275
293.13894345415122
293.12278241731684
293.11773760091592
293.1160637401897
293.11547955361686
293.11526608166446
293.11518413438665
293.11515058773807
293.11513549961217
293.11512774968401
293.115123090552
293.11511985142681
293.11511734992848
293.11511529129751
293.11511353670994
293.11511201242217
293.11511067350165
293.11510948900013
293.11510843564321
293.11510749493874
293.11510665171431
293.11510589326264
293.11510520883201
293.11510458961135
293.11510402837075
293.11510351862876
293.11510305467846
293.11510263161193
293.11510224514689
293.11510189149971
293.11510156731339
293.11510126960638
293.11510099572644
293.11510074331034
293.11510051024999
293.1151002946599
293.11510009484869
293.11509990929574
293.11509973663101
293.11509957561566
293.11509942512254
293.11509928412028
293.11509915165931
293.11509902686072
293.11509890890511
293.11509879702436
293.11509869049365
293.11509858862684
293.1150984907714
293.11509839630554
293.11509830463456
293.11509821518678
293.115098127409
293.11509804076132
293.11509795471176
293.11509786873137
293.11509778228924
293.11509769484866
293.11509760586296
293.11509751477257
293.11509742100407
293.11509732396854
293.115097223058
293.11509711763961
293.11509700704949
293.11509689058732
293.11509676751001
293.11509663702321
293.1150964982719
293.11509635033241
293.11509619220612
293.11509602281183
293.11509584097405
293.11509564540842
293.11509543470487
293.11509520730868
293.11509496149546
293.11509469533905
293.11509440667277
293.11509409304352
293.11509375165008
293.11509337923275
293.11509297179913
293.11509252377277
293.11509202510786
293.11509145146994
293.11509073187756
293.11508964711192
293.11508752842656
293.11508241850493
293.1150688899894
293.11503278559866
293.11493955640964
293.11471075939033
293.11418170160368
293.11303487368127
293.11071262299544
293.1063304737292
293.09863381123216
293.08604864530651
293.06685259232199
293.03943180775605
293.00251550919836
292.95521476991621
292.89658824929387
292.82443554011775
292.73905018933323
292.64312870674109
292.54039077042239
292.43490077425622
292.33040375176773
292.22989796395984
292.13549331163932
292.04847098545565
291.96943417386296
291.89847355542855
291.83530236611801
291.77934737246864
291.72979352359363
291.6855260234683
291.64438024291229
291.60432557555083
291.56456733421214
291.52407520374271
291.48163441179673
291.43599335365383
291.38608797102052
291.33124577311617
291.27125883302898
291.20629196900074
291.13670470830851
291.06292435323394
290.98546876611721
290.90512369370612
290.82318804260279
290.7416455998038
290.66312184305195
290.59055729481184
290.5266613947195
290.47333618022196
290.43129320338096
290.40000138280368
290.3779529305653
290.36311104465148
290.35336559537711
290.3468676500737
290.3421948133207
290.3383693348564
290.33478557800044
290.33110392983667
290.32715078251124
290.32284338570844
290.31814189117983
290.31302343431588
290.3074711688318
290.30147204276864
290.2950188269495
290.28811342461051
290.28076957641503
290.273013881716
290.26488475143816
290.25642951724762
290.24770036368346
290.2387499390357
290.22962742900052
290.22037562338414
290.21102918815626
290.20161407779062
290.19214784469102
290.18264053667986
290.17309588207627
290.1635125253535
290.15388515534613
290.14420543168404
290.13446267201056
290.1246442966667
290.11473603963628
290.10472193447868
290.09458407501143
290.0843021184574
290.07385243490563
290.06320679629056
290.05233079879906
290.04118238265835
290.02974527714599
290.01441659864139
289.99315455271358
289.96414778323401
289.92520201430852
289.87357031032491
289.80576737712693
289.71720716038834
289.60117757827237
289.4429082745462
289.15604158829478
288.78048346824761
298.75942579672363
294.3131922989437
293.38421630572827
293.18139574324368
293.13298415214155
293.12037956848644
293.11681013176388
293.11571461105126
293.11535154026831
293.11522162141847
293.11517096550199
293.11514894472697
293.11513792203601
293.11513143631998
293.11512700691236
293.11512363233879
293.1151208817576
293.11511855275359
293.115116538461
293.11511477453178
293.11511321729273
293.11511183434823
293.11511060026663
293.11510949438099
293.11510849952668
293.11510760122667
293.11510678715752
293.11510604699936
293.11510537302308
293.11510475821194
293.11510419594606
293.11510368046595
293.11510320672437
293.11510277025974
293.11510236711689
293.11510199378671
293.11510164715156
293.11510132443652
293.11510102316544
293.11510074112215
293.11510047631629
293.11510022695427
293.11509999141344
293.11509976821725
293.11509955601338
293.11509935355491
293.11509915968475
293.11509897332166
293.11509879344806
293.11509861909929
293.11509844935614
293.11509828333777
293.11509812019642
293.11509795911252
293.11509779928906
293.11509763994565
293.11509748031199
293.1150973196207
293.1150971570998
293.11509699196489
293.11509682341296
293.11509665061743
293.11509647272385
293.11509628884386
293.11509609805
293.11509589937185
293.11509569178935
293.11509547422355
293.11509524552355
293.11509500445226
293.11509474967585
293.1150944797518
293.11509419311358
293.11509388805166
293.11509356269352
293.11509321498346
293.11509284265884
293.11509244321826
293.11509201388054
293.11509155153652
293.11509105269226
293.11509051339897
293.11508992916004
293.11508929478708
293.11508860412221
293.11508784929981
293.11508701830962
293.11508608641174
293.115084986201
293.11508350726376
293.11508097683446
293.11507530178449
293.1150602757732
293.11501853210564
293.11490450644487
293.11460677540225
293.11387304850427
293.11217860286342
293.1085309124598
293.10124372861026
293.08778369103442
293.06485129682909
293.02882233823362
292.9764963198989
292.90586930840834
292.81656902032125
292.70973649052792
292.58735178586636
292.45104225841123
292.30298025113171
292.15279643104299
292.00904832371532
291.87749122452578
291.76112995344567
291.66084757555399
291.57617422900296
291.50593532111861
291.44868795810027
291.40295841023482
291.36733039082168
291.34043142187301
291.32084280715975
291.30689621069263
291.29594469378441
291.28400354014184
291.26987237127037
291.25029925611102
291.22188893815661
291.18202658799669
291.12992051129578
291.06714066308956
290.99736854514748
290.92523764130982
290.85482399677193
290.78870363579597
290.7279930581077
290.67301739584315
290.62396021319319
290.58112467386348
290.54483809018512
290.51522312497673
290.49202914492309
290.47460246788978
290.46198027042027
290.45305060012282
290.4467176163302
290.44202806588447
290.43823944812232
290.43483274734871
290.4314862773814
290.42803070954375
290.42440183470393
290.42060098639968
290.41666310153067
290.41263729265546
290.40857806548877
290.40453933231515
290.40057197256698
290.39672365121908
290.39303957201747
290.38956335217694
290.38633756120657
290.3834037069841
290.38080164602428
290.3785685396208
290.37673756450266
290.37533662104647
290.37438726523067
290.37390403842704
290.3738942818278
290.37435842169225
290.37529062215464
290.37667963595192
290.37850969335477
290.38076120339156
290.38341114621051
290.38643305464109
290.38979640922531
290.39346528139839
290.39739599198509
290.40153342925197
290.40580554811152
290.41011536100598
290.41432901963481
290.41825710245377
290.42162612687247
290.42404624181256
290.42353135661352
290.41417283009923
290.39601415514193
290.36698996475997
290.32391228293056
290.26272080341369
290.17833454465307
290.06445678332722
289.91335280766583
289.71570525507178
289.46055306478024
289.13025134904831
288.6744717062536
299.075624896166
294.42043616102046
293.40326496987979
293.18250091764054
293.13185314505688
293.11957181902926
293.11641547594775
293.11554837186418
293.1152897496811
293.11520373563445
293.11517049915716
293.11515490450097
293.11514589520056
293.11513971162924
293.11513495879404
293.11513106278858
293.11512775602
293.11512489455578
293.11512238928913
293.1151201783602
293.1151182152941
293.11511646342581
293.11511489296976
293.11511347927791
293.11511220168683
293.11511104267692
293.11510998723463
293.11510902249472
293.11510813815687
293.11510732713452
293.11510658109609
293.11510589276998
293.1151052557816
293.11510466449687
293.11510411392106
293.11510359962227
293.11510311766017
293.11510266452314
293.11510223707353
293.11510183249857
293.11510144826559
293.11510108208313
293.11510073186668
293.11510039570805
293.1151000718487
293.11509975865624
293.11509945460381
293.11509915825286
293.11509886823802
293.11509858325468
293.11509830204886
293.11509802340771
293.11509774615166
293.11509746912634
293.11509719119437
293.11509691122637
293.11509662809055
293.11509634064316
293.11509604771834
293.11509574811834
293.11509544060425
293.11509512388778
293.11509479662499
293.11509445740808
293.11509410475412
293.11509373709333
293.11509335275713
293.11509294996358
293.11509252679906
293.11509208119429
293.11509161090078
293.1150911134697
293.11509058622818
293.1150900262495
293.11508943031538
293.11508879487212
293.11508811598083
293.11508738925875
293.11508660980388
293.11508577210162
293.11508486990988
293.11508389611271
293.11508284250141
293.11508169933643
293.11508045414115
293.11507908766981
293.11507755954227
293.11507575753859
293.11507332552588
293.11506910927983
293.11505947540326
293.11503353856756
293.11496056690584
293.11475935654613
293.11423040823297
293.11292144251371
293.10989498024475
293.10339468485586
293.0904885619837
293.06689070868589
293.02723550268854
292.96595545736335
292.87857970307795
292.76296475605585
292.61997975958548
292.45347422136155
292.26966698861332
292.07621026032461
291.8811711315895
291.69711466020095
291.53403042889619
291.39585213488607
291.28279907695844
291.19281984372554
291.12286317229945
291.06974026202391
291.03059015963436
291.00305121003424
290.98524118138823
290.97561048110714
290.97268105772139
290.97461963727613
290.97845405402262
290.98211195378292
290.98624883725478
290.98534576255264
290.97440112935163
290.95114573074704
290.9163153326856
290.8731117318107
290.8260594549933
290.77967436211651
290.73742319588388
290.70129679095197
290.67197697807802
290.64929958927524
290.63269253029551
290.62142796209434
290.61469761071567
290.61161165793095
290.61121173547508
290.61252977194687
290.61467405564127
290.61690716275405
290.61869139467001
290.61969587647616
290.61977309060404
290.61891862760405
290.61722741746945
290.6148551119519
290.61198834333919
290.60882441515236
290.60555878389914
290.60237649010861
290.59944759362691
290.59692617141644
290.59495002316874
290.5936408063759
290.59310461399656
290.59343279302732
290.59470272582377
290.5969783830455
290.60031058862921
290.60473703637638
290.61028215151038
290.6169569172481
290.62475878915717
290.63367180188811
290.64366693015279
290.65470271157318
290.66672605996087
290.67967313800557
290.69347011961668
290.70803358619747
290.72327033934511
290.73907642786418
290.75533499405122
290.77191261480141
290.7886537147848
290.80537252116881
290.82184174062706
290.83777688042181
290.85281487653327
290.86648474629584
290.87816674715316
290.88703604434374
290.89096672142119
290.88433897250957
290.8687852078873
290.84184740959284
290.80012067216921
290.73918995041004
290.6534666093134
290.53601415640048
290.37839574991705
290.17063467711267
289.90160321967329
289.56077034928154
289.14300971573044
288.59400146762403
299.36840550156865
294.54585127760475
293.43849452549068
293.1908644822081
293.13352858352391
293.11980696100949
293.1164070069301
293.11552716142171
293.11528415798921
293.11520900882437
293.11518073628906
293.11516677973503
293.11515787773084
293.11515118201612
293.11514570860271
293.1151410558254
293.1151370227177
293.11513348740749
293.11513036488117
293.11512759061247
293.11512511327248
293.11512289096567
293.11512088896774
293.11511907818362
293.11511743403264
293.1151159355868
293.11511456487835
293.11511330641764
293.11511214717825
293.11511107814397
293.11511008942949
293.11510917196046
293.11510831784568
293.11510752011719
293.11510677258633
293.11510606974275
293.11510540666831
293.1151047789632
293.11510418268108
293.11510361426957
293.11510307051486
293.11510254849401
293.11510204553412
293.11510155917586
293.115101087141
293.11510062730281
293.11510017766102
293.11509973632121
293.11509930147616
293.11509887139056
293.115098444387
293.1150980188329
293.11509759312906
293.11509716569873
293.11509673497619
293.11509629939445
293.11509585737127
293.11509540729526
293.11509494751431
293.11509447632312
293.11509399195126
293.11509349255027
293.1150929761817
293.11509244080554
293.11509188426459
293.11509130426504
293.11509069835506
293.11509006390264
293.11508939807118
293.11508869778999
293.1150879597181
293.11508718020724
293.1150863552636
293.1150854805025
293.11508455109214
293.115083561684
293.11508250633062
293.1150813783903
293.11508017041149
293.11507887398591
293.11507747955807
293.11507597615542
293.11507435090613
293.11507258783155
293.11507066395558
293.1150685355139
293.11506608888129
293.11506297175623
293.11505804061341
293.11504765460933
293.11502073917842
293.11494549426322
293.11473636765669
293.11417916846625
293.11277856340973
293.10948591543473
293.10229131406174
293.08775429340756
293.06070334352358
293.01445911035597
292.94184766566582
292.83688740993045
292.69658628186585
292.5221653424797
292.31933328851949
292.09767243376348
291.86943575371998
291.64805995747395
291.4466613078668
291.27666915174046
291.14020128934965
291.03492461720111
290.9563030408051
290.89919040492958
290.8588334420669
290.83133897436358
290.81376866675379
290.80401760726278
290.80058235601405
290.80227894440742
290.8079544638548
290.81627770780904
290.82684874869983
290.83768895373868
290.84435728405265
290.84438499564038
290.8369224100876
290.82276973119463
290.80420918758762
290.78439137224262
290.76647200547472
290.75287157634716
290.74492025980408
290.74290941860181
290.74638173114755
290.75445558363202
290.7660625918046
290.78008077077624
290.79540390997079
290.81099232796043
290.8259260097347
290.83945662866375
290.85104383332452
290.86036561110677
290.86730531212186
290.87192256779139
290.87441471066956
290.87507567258274
290.87425813179311
290.87234215809838
290.86971119535053
290.86673557976644
290.86376239497332
290.86110930202585
290.85906108545896
290.85786869141185
290.85774952689684
290.85888838297893
290.86143877126386
290.86552446326363
290.87124099546173
290.87865695649492
290.88781500445924
290.89873266711953
290.91140302060813
290.92579534958764
290.94185587542103
290.95950863242649
290.97865653046517
290.99918264461206
291.02095163024666
291.04381109841296
291.06759273773338
291.09211289214852
291.11717232156087
291.14255488934378
291.16802480856563
291.193321964267
291.21815482765692
291.24219057318629
291.2650415582201
291.28624676966859
291.30524683818987
291.32135008370022
291.33368635743392
291.34114455971189
291.33855219294503
291.32787405027813
291.30693942492024
291.27255193786169
291.22048782534102
291.1453024234778
291.04014333093323
290.89660740742767
290.70468639605059
290.45292204136211
290.1290272837357
289.72114372033917
289.21724966474625
288.58512737914208
299.63467489014869
294.67354137824157
293.482108511489
293.20261797637238
293.13654409259067
293.12055177444182
293.11658936863313
293.11557785079964
293.11530639015507
293.11522569341292
293.1151962292567
293.11518159119106
293.11517192011661
293.1151643772335
293.11515804729152
293.11515257138683
293.11514776717996
293.11514351797604
293.11513973763135
293.11513635791488
293.11513332296329
293.11513058627628
293.11512810877758
293.11512585739479
293.11512380397119
293.11512192440046
293.11512019792639
293.11511860663256
293.11511713523828
293.1151157721124
293.11511450557651
293.11511332469701
293.1151122200439
293.1151111833114
293.11511020711839
293.11510928487451
293.11510841067337
293.11510757920405
293.11510678567623
293.11510602575299
293.11510529548946
293.11510459127845
293.11510390980413
293.11510324800076
293.11510260301424
293.1151019721687
293.11510135293764
293.11510074291897
293.11510013981365
293.1150995414053
293.11509894554302
293.11509835012464
293.11509775308178
293.11509715236514
293.11509654592982
293.11509593171979
293.11509530765153
293.11509467159584
293.11509402136267
293.11509335468622
293.11509266921024
293.11509196247044
293.11509123187597
293.11509047469104
293.11508968801576
293.11508886876152
293.11508801362095
293.11508711903525
293.11508618115954
293.11508519582662
293.11508415850233
293.11508306423343
293.11508190758957
293.11508068259855
293.11507938266863
293.11507800049316
293.11507652793466
293.11507495588722
293.11507327411158
293.11507147102935
293.11506953344536
293.11506744611313
293.11506519083372
293.11506274389615
293.11506006738836
293.11505707825836
293.11505353999161
293.11504869913745
293.11504013005197
293.11502028255831
293.11496684717901
293.11481783560146
293.11441242483988
293.11336376513094
293.11081605077095
293.10504509438084
293.09292540960132
293.06943544367084
293.02756200620064
292.95902657780317
292.8559925165938
292.71336310664748
292.53083630875727
292.31393018443362
292.07366787580435
291.82509355302943
291.58500143406161
291.36927333911439
291.1902451592303
291.05137735342612
290.94877424060553
290.87609896774796
290.8264602133878
290.79368283052088
290.77287955834367
290.76053646669288
290.75433202533407
290.75284969822394
290.7552789328933
290.76115789375262
290.77010176920368
290.78095799117796
290.79195923231225
290.80161634841869
290.80894243383938
290.81358786881896
290.81604296354737
290.81760984774161
290.82012301475726
290.82548477313696
290.83518994708334
290.85002315708726
290.87000590893859
290.89454025742879
290.92263134398314
290.95309007632761
290.98467514945077
291.01618101412163
291.04649594902634
291.07464855361968
291.0998483519553
291.1215192779643
291.13931915626495
291.15313709547047
291.16307736052528
291.16943463357649
291.17265347806529
291.17327870692174
291.17190579529517
291.16913845981065
291.16555634077571
291.16169599895193
291.1580427876342
291.15502696191669
291.15302292965623
291.15235061407111
291.1532779084863
291.15602359596534
291.16076038035476
291.16761779522176
291.17668481996583
291.18801210645393
291.20161382129271
291.21746921094683
291.23552405684603
291.25569217687621
291.27785709274292
291.30187393981475
291.32757165753361
291.35475546389864
291.38320951058768
291.41269951254105
291.44297509384899
291.4737714733883
291.50481011063812
291.535797960803
291.56642501295875
291.59635943333365
291.62523956712209
291.65266292555964
291.67817172187722
291.70123218273244
291.72120500315117
291.73730430905448
291.74853684692215
291.75210330357908
291.74759922945299
291.73469890837185
291.7106901761851
291.67182963733489
291.61317348922256
291.52835019379717
291.40937961283822
291.24658382402652
291.028614717175
290.74272857914747
290.37556052074558
289.91467608830533
289.35028713999964
288.671211710617
299.87508209928512
294.79547818499242
293.52484161802823
293.21551069615884
293.140207294748
293.12156473343089
293.11687216916778
293.11566487969321
293.11534174708834
293.1152472694892
293.11521373888468
293.11519745219522
293.11518672092217
293.11517827287639
293.11517110158456
293.11516483391733
293.11515928704767
293.11515434421102
293.11514991776824
293.11514593692266
293.11514234271061
293.11513908536079
293.11513612255845
293.11513341813554
293.11513094104708
293.1151286645395
293.11512656546824
293.11512462380495
293.11512282246764
293.11512114754845
293.11511958514035
293.11511812271721
293.11511674939652
293.11511545559352
293.11511423278841
293.11511307335996
293.115111970454
293.11511091787867
293.11510991002029
293.11510894176928
293.11510800845315
293.11510710577789
293.1151062297767
293.11510537676463
293.11510454329709
293.11510372613247
293.11510292219992
293.11510212857081
293.11510134243355
293.11510056106954
293.1150997818321
293.11509900212656
293.11509821939194
293.11509743108297
293.11509663465165
293.11509582752808
293.11509500710213
293.11509417070306
293.11509331557914
293.11509243887906
293.11509153763348
293.11509060873453
293.11508964891129
293.11508865470353
293.11508762243608
293.11508654818982
293.11508542776681
293.11508425664772
293.11508302994531
293.11508174235587
293.11508038810558
293.11507896088676
293.115077453781
293.11507585917218
293.11507416864521
293.11507237286486
293.11507046142856
293.11506842268744
293.11506624352762
293.11506390909847
293.11506140244131
293.11505870387612
293.11505578962186
293.11505262766156
293.11504916349173
293.11504526968571
293.11504057177706
293.11503387420652
293.11502137141395
293.114991416436
293.11491026470742
293.11468616573353
293.11408664083962
293.11256670423853
293.10895422326621
293.10095963693203
293.08457193200547
293.05358933112399
292.9997330378302
292.91379708748048
292.78790389616159
292.61827446051126
292.40745425396392
292.16505817521943
291.90669054020458
291.65129977057705
291.41758847523511
291.22032492117927
291.0675844251702
290.9572941172911
290.88182065970182
290.83279530232164
290.80255945998414
290.78500185013519
290.77575041364435
290.77198908377954
290.77211954521744
290.77540363657749
290.78165761214171
290.79044013151247
290.80036451471557
290.81130653788216
290.82311451419423
290.83557316224665
290.84868121723883
290.86279260555494
290.87864980409393
290.89727646511091
290.9197470806248
290.94690857357347
290.97915622152624
291.01633917417274
291.05780427294076
291.10252813012187
291.14927070918958
291.19670477342561
291.24350752672768
291.288422386398
291.33030537370541
291.36816604562011
291.40120367456143
291.42884254024108
291.45076582409331
291.46692047019678
291.47752807862696
291.48312985026769
291.48450517338563
291.48256955589733
291.47827409341534
291.47251914521172
291.46609345102195
291.45967217109802
291.4538483973937
291.44913108425538
291.44594599068677
291.44464029182086
291.44548930933604
291.44870375185462
291.45443643959334
291.46278801737043
291.47381156237128
291.48751620600865
291.50387000419738
291.52280235433898
291.54420626142473
291.56794071669481
291.59383337593601
291.62168363443118
291.65126611224542
291.68233446470555
291.71462531730606
291.74786196789051
291.78175740530708
291.81601611023677
291.8503339784574
291.8843956848371
291.91786935458595
291.95039802555988
291.98158645781274
292.01098512266361
292.03807480255193
292.06224653204458
292.08276726831571
292.09873975045548
292.10905933489568
292.11114349560938
292.1068881163979
292.09431285690886
292.07030790852298
292.03062684193679
291.96963308176794
291.88005079973226
291.75281127796046
291.57703185622847
291.34001034031269
291.02741830038462
290.6240537036183
290.11575930847039
289.49219076224239
288.7386674705599
300.09217305977336
294.91093864457611
293.56689721191236
293.22895150756568
293.14425319286971
293.12274775003101
293.11721916052073
293.11577412262398
293.11538427014432
293.11527092951644
293.11523172307011
293.11521334940869
293.11520150099074
293.11519220483592
293.11518427381191
293.11517729188893
293.11517106788
293.1151654840761
293.11516045265557
293.11515590207597
293.11515177201852
293.11514801094387
293.11514457454695
293.11514142458333
293.11513852793865
293.11513585586181
293.11513338333276
293.11513108862903
293.11512895328758
293.11512696139152
293.11512509692511
293.11512334609137
293.11512169675018
293.11512013815667
293.11511866073471
293.11511725589742
293.11511591589834
293.1151146337134
293.11511340294737
293.11511221775345
293.1151110727609
293.11510996301189
293.11510888390643
293.11510783115421
293.11510680073019
293.11510578883394
293.11510479185466
293.11510380633877
293.11510282896188
293.11510185650172
293.11510088581269
293.11509991380348
293.11509893741561
293.11509795360269
293.1150969593084
293.11509595144378
293.11509492686588
293.11509388235567
293.11509281459456
293.11509172014087
293.11509059540589
293.11508943663006
293.11508823985565
293.11508700089388
293.1150857152906
293.11508437829036
293.11508298479669
293.11508152932379
293.11508000594006
293.11507840820559
293.11507672910545
293.11507496097431
293.11507309540491
293.11507112314001
293.1150690339461
293.11506681646551
293.11506445803963
293.11506194449385
293.11505925987188
293.11505638609935
293.11505330252368
293.11504998514471
293.11504640484929
293.11504252205901
293.11503826828516
293.11503348126422
293.11502768305064
293.11501935591383
293.11500371102574
293.11496624223423
293.11486539100429
293.11458951709955
293.11385937390889
293.11202928575972
293.10773065550001
293.09833085027458
293.07929171964287
293.04371824789365
292.9825970197378
292.88621096359395
292.74677638597973
292.56159432468888
292.33544766734553
292.08108149796124
291.81732022611874
291.56523663386054
291.34346352319864
291.1641583888819
291.03111377834477
290.94022124710767
290.88234782798867
290.84818567153599
290.82999241783961
290.8220060703282
290.8203678533103
290.82278424741321
290.82811375348297
290.83598799854991
290.84533564114417
290.85552402046858
290.86738253578221
290.88129003037227
290.89748300172704
290.91622560834929
290.93789436085279
290.96300841166334
290.99219063810983
291.02605769364811
291.06506554017591
291.10936070176496
291.15868914511714
291.21238974707398
291.26946286697631
291.3286794388132
291.38869386987403
291.44813848128388
291.50569403210028
291.56014065795119
291.61039619832485
291.65554840534008
291.6948731931576
291.72785491166871
291.75427716493067
291.77350433017466
291.78453723461621
291.78807994974051
291.78543759816176
291.77823906911482
291.7682865978029
291.75740897498224
291.74650084179416
291.73594749919704
291.72635923192178
291.71831736112483
291.71231633525292
291.70874570920745
291.70789225509486
291.70995049527579
291.71503591705823
291.72319756690592
291.73442865033786
291.74867479193489
291.76584025082957
291.78579270043053
291.808367195556
291.83336986393891
291.86058171137273
291.8897627639613
291.92065662746785
291.95299535921072
291.98650435294547
292.02090673619267
292.05592660096636
292.09129035506112
292.12672531592017
292.16195394283801
292.19668355405673
292.23059245180019
292.26330747616566
292.29437372742609
292.32323459092709
292.34922024912061
292.37150701383143
292.38908570278153
292.40004928133646
292.40485293651341
292.40418125983916
292.39571958125032
292.37597665774786
292.34016020591292
292.28187881377545
292.1928948008499
292.06304787408646
291.8803716787545
291.63081214490398
291.29804354419372
290.86396191978707
290.31065451848377
289.62329942620175
288.78365067509463
300.28874079025189
295.01999470592898
293.60800640989879
293.2426549747405
293.1485547373693
293.12405431658584
293.11761416109886
293.11589974435179
293.11543160283969
293.11529552507199
293.11524947574281
293.11522874901351
293.11521579960407
293.11520574859992
293.11519716224348
293.11518956172898
293.11518274275147
293.11517658673762
293.11517100716526
293.11516593348802
293.11516130566906
293.11515707182855
293.11515318687697
293.11514961149709
293.11514631133309
293.11514325631515
293.11514042010322
293.11513777975068
293.11513531586877
293.11513301050508
293.11513084614165
293.11512880798648
293.11512688287189
293.11512505905995
293.11512332603735
293.11512167434063
293.11512009540348
293.11511858143098
293.1151171253004
293.11511572047561
293.11511436092968
293.11511304107751
293.11511175571843
293.11511049998495
293.11510926929623
293.11510805931414
293.11510686590555
293.11510568510744
293.11510451309562
293.11510334615491
293.11510218065138
293.11510101300593
293.11509983967051
293.11509865710457
293.11509746175108
293.1150962500102
293.11509501821365
293.11509376260091
293.11509247929348
293.11509116426782
293.11508981332594
293.11508842206592
293.11508698585124
293.11508549977566
293.11508395862188
293.11508235681657
293.1150806883827
293.11507894688577
293.11507712537093
293.11507521628988
293.11507321141966
293.11507110177308
293.1150688774951
293.11506652773727
293.11506404050942
293.11506140250566
293.11505859889792
293.11505561308826
293.11505242640499
293.11504901771633
293.11504536290226
293.1150414339852
293.11503719717581
293.11503260704285
293.11502758660288
293.11502195769475
293.11501520388367
293.11500570020922
293.11498835025412
293.11494779116555
293.11484020871399
293.11454842389952
293.1137806130788
293.11186482995254
293.10738209602698
293.09761089560635
293.07786848607265
293.04104511764882
292.9778502548325
292.87830113468971
292.73455035316141
292.5443273728543
292.3135593762687
292.05673858901184
291.79443449006015
291.54856358097493
291.33706098702322
291.1700050959243
291.04866885439969
290.96749286258961
290.91805026007989
290.891720176859
290.88057606079934
290.87895031493895
290.88315758738003
290.89106658128543
290.90117395682699
290.91203686862161
290.92397235708449
290.93779470783682
290.95403003307479
290.97314362574735
290.99558105569901
291.02179380746372
291.05224465089827
291.08738421567017
291.12759187771576
291.1730870038914
291.22383262366128
291.27946216681931
291.33925491377721
291.40216890098753
291.46692092673368
291.53209246439127
291.59624105908983
291.65800431189552
291.71619056579351
291.76985250070692
291.81833790452248
291.86132402008735
291.898530493274
291.92923815902736
291.95341001396855
291.97190259947405
291.98631658519611
291.99676199270721
292.00293124783894
292.00451709347362
292.00138594285613
291.99368899182303
291.98312741009249
291.97188040653435
291.96062237552803
291.95016226590809