/*--------------------------------*- C++ -*----------------------------------*\
  =========                 |
  \\      /  F ield         | OpenFOAM: The Open Source CFD Toolbox
   \\    /   O peration     | Website:  https://openfoam.org
    \\  /    A nd           | Version:  12
     \\/     M anipulation  |
\*---------------------------------------------------------------------------*/
FoamFile
{
    format      ascii;
    class       volVectorField;
    location    "10";
    object      U;
}
// * * * * * * * * * * * * * * * * * * * * * * * * * * * * * * * * * * * * * //

dimensions      [0 1 -1 0 0 0 0];

internalField   nonuniform List<vector> 
40000
(
(-0.0119557 0.00838036 0)
(-0.0170974 -0.000203074 0)
(-0.0149835 -0.00174675 0)
(-0.0118866 -0.00151475 0)
(-0.00928135 -0.00103943 0)
(-0.00742187 -0.000670766 0)
(-0.00613186 -0.000430031 0)
(-0.00522593 -0.000279948 0)
(-0.00457367 -0.000187004 0)
(-0.00409201 -0.000128709 0)
(-0.00372782 -9.12512e-05 0)
(-0.0034467 -6.64598e-05 0)
(-0.00322593 -4.95288e-05 0)
(-0.00305013 -3.75992e-05 0)
(-0.00290867 -2.89389e-05 0)
(-0.00279399 -2.24751e-05 0)
(-0.00270062 -1.75274e-05 0)
(-0.00262449 -1.36534e-05 0)
(-0.00256253 -1.05568e-05 0)
(-0.00251238 -8.03404e-06 0)
(-0.0024722 -5.94289e-06 0)
(-0.00244054 -4.18231e-06 0)
(-0.00241623 -2.67835e-06 0)
(-0.00239835 -1.37353e-06 0)
(-0.00238614 -2.17839e-07 0)
(-0.002379 8.44626e-07 0)
(-0.0023764 1.86562e-06 0)
(-0.00237814 2.7336e-06 0)
(-0.00238397 3.46303e-06 0)
(-0.00239334 4.13401e-06 0)
(-0.00240592 4.78278e-06 0)
(-0.00242149 5.39571e-06 0)
(-0.00243986 5.97411e-06 0)
(-0.00246089 6.52514e-06 0)
(-0.00248445 7.05646e-06 0)
(-0.00251042 7.57453e-06 0)
(-0.00253873 8.08435e-06 0)
(-0.00256931 8.58967e-06 0)
(-0.00260214 9.09367e-06 0)
(-0.00263717 9.59939e-06 0)
(-0.00267439 1.01098e-05 0)
(-0.00271382 1.06279e-05 0)
(-0.00275544 1.11561e-05 0)
(-0.0027993 1.16969e-05 0)
(-0.00284541 1.22528e-05 0)
(-0.00289382 1.28263e-05 0)
(-0.00294459 1.34198e-05 0)
(-0.00299777 1.40357e-05 0)
(-0.00305345 1.46764e-05 0)
(-0.00311169 1.53443e-05 0)
(-0.00317259 1.6042e-05 0)
(-0.00323626 1.67721e-05 0)
(-0.0033028 1.75373e-05 0)
(-0.00337234 1.83404e-05 0)
(-0.00344501 1.91843e-05 0)
(-0.00352095 2.00719e-05 0)
(-0.00360033 2.10064e-05 0)
(-0.00368331 2.19913e-05 0)
(-0.00377008 2.30303e-05 0)
(-0.00386083 2.41276e-05 0)
(-0.00395578 2.5288e-05 0)
(-0.00405517 2.65168e-05 0)
(-0.00415924 2.78196e-05 0)
(-0.00426827 2.92029e-05 0)
(-0.00438257 3.0673e-05 0)
(-0.00450245 3.2237e-05 0)
(-0.00462826 3.3902e-05 0)
(-0.00476038 3.56757e-05 0)
(-0.00489922 3.75663e-05 0)
(-0.00504522 3.95823e-05 0)
(-0.00519885 4.17333e-05 0)
(-0.00536064 4.40301e-05 0)
(-0.00553115 4.64847e-05 0)
(-0.00571099 4.91106e-05 0)
(-0.00590083 5.19226e-05 0)
(-0.0061014 5.49365e-05 0)
(-0.00631349 5.81703e-05 0)
(-0.00653798 6.16432e-05 0)
(-0.00677582 6.53757e-05 0)
(-0.00702805 6.93888e-05 0)
(-0.00729582 7.37055e-05 0)
(-0.00758037 7.83519e-05 0)
(-0.0078831 8.33574e-05 0)
(-0.00820552 8.87545e-05 0)
(-0.00854934 9.45792e-05 0)
(-0.00891642 0.000100873 0)
(-0.00930889 0.000107684 0)
(-0.00972909 0.000115067 0)
(-0.0101797 0.000123086 0)
(-0.0106639 0.000131817 0)
(-0.0111852 0.000141346 0)
(-0.0117476 0.000151776 0)
(-0.0123561 0.000163214 0)
(-0.0130166 0.000175757 0)
(-0.0137358 0.00018945 0)
(-0.0145221 0.000204217 0)
(-0.0153847 0.000219753 0)
(-0.0163338 0.000235417 0)
(-0.017379 0.000250162 0)
(-0.0185268 0.000262609 0)
(-0.0197765 0.000271209 0)
(-0.0211137 0.000274315 0)
(-0.0225042 0.000269854 0)
(-0.0238894 0.000254718 0)
(-0.0251871 0.000224727 0)
(-0.0263013 0.000176132 0)
(-0.0271391 0.000108268 0)
(-0.027627 2.6471e-05 0)
(-0.0277207 -5.36925e-05 0)
(-0.0274506 -0.000116228 0)
(-0.0267937 -0.000189831 0)
(-0.0257561 -0.000280865 0)
(-0.0243776 -0.00038098 0)
(-0.0227212 -0.000477161 0)
(-0.0208672 -0.000556769 0)
(-0.0189047 -0.000609952 0)
(-0.0169242 -0.000630336 0)
(-0.015013 -0.000614778 0)
(-0.0132527 -0.000562778 0)
(-0.0117165 -0.000475867 0)
(-0.0104662 -0.000357272 0)
(-0.00954841 -0.000212032 0)
(-0.00898799 -4.72502e-05 0)
(-0.00877325 0.000121589 0)
(-0.00893816 0.000252188 0)
(-0.00951318 0.00034047 0)
(-0.010418 0.000376288 0)
(-0.011548 0.000355106 0)
(-0.0127914 0.000275069 0)
(-0.0140604 0.000143116 0)
(-0.0153076 -1.61071e-05 0)
(-0.0165292 -0.000166016 0)
(-0.0177613 -0.000269054 0)
(-0.0190595 -0.000299658 0)
(-0.0204732 -0.000253643 0)
(-0.0220231 -0.000148815 0)
(-0.0236909 -1.66133e-05 0)
(-0.0254241 0.00011042 0)
(-0.0271513 0.00020859 0)
(-0.0287997 0.000266971 0)
(-0.0303099 0.000285864 0)
(-0.0316413 0.000272457 0)
(-0.0327735 0.000236384 0)
(-0.0337031 0.000186797 0)
(-0.0344398 0.000131102 0)
(-0.0350037 7.48224e-05 0)
(-0.0354213 2.19823e-05 0)
(-0.0357239 -2.44075e-05 0)
(-0.0359457 -6.212e-05 0)
(-0.0361226 -8.98846e-05 0)
(-0.0362916 -0.000107518 0)
(-0.0364909 -0.000114679 0)
(-0.0367571 -0.000108828 0)
(-0.0371245 -8.78365e-05 0)
(-0.0376266 -5.08257e-05 0)
(-0.038295 2.58637e-06 0)
(-0.0391584 7.26281e-05 0)
(-0.0402421 0.000159372 0)
(-0.0415679 0.000262606 0)
(-0.0431532 0.000381687 0)
(-0.0450114 0.000515447 0)
(-0.0471507 0.000662159 0)
(-0.0495749 0.000819604 0)
(-0.0522827 0.000985188 0)
(-0.0552681 0.00115608 0)
(-0.0585208 0.00132937 0)
(-0.0620266 0.00150219 0)
(-0.0657679 0.00167193 0)
(-0.0697243 0.00183636 0)
(-0.0738733 0.00199371 0)
(-0.0781912 0.00214271 0)
(-0.0826532 0.00228253 0)
(-0.087234 0.00241269 0)
(-0.0919082 0.002533 0)
(-0.0966501 0.00264339 0)
(-0.101434 0.00274371 0)
(-0.106232 0.00283352 0)
(-0.111016 0.00291185 0)
(-0.115755 0.00297691 0)
(-0.120411 0.0030257 0)
(-0.124943 0.00305358 0)
(-0.129296 0.00305365 0)
(-0.133405 0.00301575 0)
(-0.137185 0.00292479 0)
(-0.140522 0.00275852 0)
(-0.143263 0.00248611 0)
(-0.145197 0.00206549 0)
(-0.146048 0.00142688 0)
(-0.145539 0.000457241 0)
(-0.143136 -0.000845566 0)
(-0.138341 -0.00248646 0)
(-0.130618 -0.00448638 0)
(-0.119398 -0.00685342 0)
(-0.104158 -0.00955251 0)
(-0.0846457 -0.012456 0)
(-0.0613154 -0.0152207 0)
(-0.0357903 -0.0169718 0)
(-0.0103634 -0.0155244 0)
(0.0134035 -0.00175577 0)
(0.0106986 0.00668567 0)
(-0.0100587 0.0214495 0)
(-0.0161505 0.00244737 0)
(-0.0172067 -0.00354959 0)
(-0.0161178 -0.00398719 0)
(-0.0144913 -0.00321731 0)
(-0.01295 -0.00239142 0)
(-0.0116543 -0.00174928 0)
(-0.0106001 -0.00128952 0)
(-0.00974779 -0.000966397 0)
(-0.00905668 -0.00073784 0)
(-0.00849302 -0.000573426 0)
(-0.00803031 -0.000452671 0)
(-0.00764811 -0.000362042 0)
(-0.00733073 -0.000292582 0)
(-0.00706606 -0.000238291 0)
(-0.00684471 -0.000195086 0)
(-0.00665932 -0.000160136 0)
(-0.00650408 -0.000131442 0)
(-0.00637438 -0.000107564 0)
(-0.00626651 -8.74456e-05 0)
(-0.00617743 -7.0301e-05 0)
(-0.00610471 -5.55349e-05 0)
(-0.00604631 -4.26886e-05 0)
(-0.00600055 -3.13983e-05 0)
(-0.00596606 -2.13646e-05 0)
(-0.00594167 -1.2323e-05 0)
(-0.0059265 -4.034e-06 0)
(-0.0059195 3.61302e-06 0)
(-0.00592041 1.06443e-05 0)
(-0.00592883 1.7069e-05 0)
(-0.00594403 2.29894e-05 0)
(-0.00596549 2.84808e-05 0)
(-0.00599277 3.36157e-05 0)
(-0.00602554 3.84603e-05 0)
(-0.00606348 4.30732e-05 0)
(-0.00610637 4.75039e-05 0)
(-0.00615401 5.17947e-05 0)
(-0.00620626 5.59813e-05 0)
(-0.006263 6.00946e-05 0)
(-0.00632415 6.4162e-05 0)
(-0.00638967 6.82085e-05 0)
(-0.00645951 7.22567e-05 0)
(-0.00653368 7.63275e-05 0)
(-0.00661219 8.04405e-05 0)
(-0.00669509 8.46145e-05 0)
(-0.00678241 8.8868e-05 0)
(-0.00687424 9.32186e-05 0)
(-0.00697068 9.76841e-05 0)
(-0.00707182 0.000102282 0)
(-0.0071778 0.00010703 0)
(-0.00728877 0.000111946 0)
(-0.00740489 0.00011705 0)
(-0.00752635 0.000122359 0)
(-0.00765335 0.000127894 0)
(-0.00778611 0.000133675 0)
(-0.0079249 0.000139723 0)
(-0.00806997 0.000146062 0)
(-0.00822162 0.000152714 0)
(-0.00838018 0.000159707 0)
(-0.00854599 0.000167068 0)
(-0.00871943 0.000174829 0)
(-0.00890092 0.000183024 0)
(-0.0090909 0.000191689 0)
(-0.00928986 0.000200865 0)
(-0.00949832 0.000210594 0)
(-0.00971686 0.000220922 0)
(-0.00994609 0.000231899 0)
(-0.0101867 0.000243579 0)
(-0.0104394 0.000256018 0)
(-0.010705 0.000269281 0)
(-0.0109844 0.000283436 0)
(-0.0112785 0.000298561 0)
(-0.0115883 0.000314741 0)
(-0.011915 0.000332072 0)
(-0.0122598 0.000350657 0)
(-0.012624 0.000370615 0)
(-0.0130092 0.000392075 0)
(-0.013417 0.000415181 0)
(-0.0138491 0.000440091 0)
(-0.0143075 0.000466979 0)
(-0.0147946 0.000496043 0)
(-0.0153126 0.000527503 0)
(-0.0158643 0.000561613 0)
(-0.0164527 0.00059866 0)
(-0.0170813 0.000638978 0)
(-0.0177539 0.000682958 0)
(-0.0184749 0.000731062 0)
(-0.0192494 0.000783841 0)
(-0.020083 0.000841956 0)
(-0.0209826 0.000906222 0)
(-0.0219563 0.000977662 0)
(-0.0230138 0.00105758 0)
(-0.0241671 0.00114763 0)
(-0.0254311 0.00124989 0)
(-0.0268247 0.00136693 0)
(-0.0283718 0.00150165 0)
(-0.0301011 0.00165686 0)
(-0.0320449 0.00183412 0)
(-0.0342335 0.00203153 0)
(-0.0366845 0.00224013 0)
(-0.0393863 0.00243962 0)
(-0.042281 0.00259556 0)
(-0.0452538 0.00266154 0)
(-0.048138 0.00258892 0)
(-0.0507379 0.00234209 0)
(-0.0528617 0.00191288 0)
(-0.0543531 0.00132663 0)
(-0.0551061 0.00063725 0)
(-0.0550784 -9.13281e-05 0)
(-0.0543016 -0.00082416 0)
(-0.0528433 -0.00154293 0)
(-0.0508388 -0.00219653 0)
(-0.0484478 -0.00273562 0)
(-0.0458264 -0.00313032 0)
(-0.0431115 -0.00336969 0)
(-0.0404178 -0.00345544 0)
(-0.037841 -0.0033957 0)
(-0.0354626 -0.00320118 0)
(-0.0333534 -0.00288461 0)
(-0.0315755 -0.00246345 0)
(-0.030183 -0.00196482 0)
(-0.0292226 -0.0014239 0)
(-0.0287453 -0.000858607 0)
(-0.028854 -0.000241522 0)
(-0.0297346 0.000423478 0)
(-0.0313156 0.00107544 0)
(-0.0335676 0.00164511 0)
(-0.0364257 0.0020885 0)
(-0.0398107 0.00239386 0)
(-0.0436282 0.00258846 0)
(-0.0477813 0.0027294 0)
(-0.05217 0.00287412 0)
(-0.056685 0.00305259 0)
(-0.0612101 0.00325594 0)
(-0.065635 0.00344548 0)
(-0.069869 0.00357414 0)
(-0.0738468 0.00360623 0)
(-0.0775255 0.0035266 0)
(-0.0808775 0.00334011 0)
(-0.0838851 0.00306599 0)
(-0.0865387 0.00273093 0)
(-0.0888383 0.00236305 0)
(-0.0907938 0.00198806 0)
(-0.0924259 0.00162762 0)
(-0.093765 0.00129896 0)
(-0.0948503 0.00101509 0)
(-0.0957268 0.000785188 0)
(-0.0964435 0.000615186 0)
(-0.0970508 0.000508315 0)
(-0.097599 0.000465541 0)
(-0.0981357 0.00048609 0)
(-0.0987051 0.000568227 0)
(-0.0993497 0.000709703 0)
(-0.100108 0.000906864 0)
(-0.101012 0.00115506 0)
(-0.102091 0.00144889 0)
(-0.103365 0.00178224 0)
(-0.104853 0.00214841 0)
(-0.106566 0.00254022 0)
(-0.108509 0.00295013 0)
(-0.110683 0.00337036 0)
(-0.113081 0.00379302 0)
(-0.115695 0.0042104 0)
(-0.118508 0.0046152 0)
(-0.121504 0.00500069 0)
(-0.124658 0.0053609 0)
(-0.127947 0.00569071 0)
(-0.131343 0.00598594 0)
(-0.134817 0.00624343 0)
(-0.13834 0.00646098 0)
(-0.141882 0.00663723 0)
(-0.145414 0.0067715 0)
(-0.148905 0.00686355 0)
(-0.152328 0.00691326 0)
(-0.155654 0.00692029 0)
(-0.158854 0.00688372 0)
(-0.1619 0.00680155 0)
(-0.164763 0.00667021 0)
(-0.167409 0.00648396 0)
(-0.169804 0.0062341 0)
(-0.171905 0.00590806 0)
(-0.173659 0.00548819 0)
(-0.175006 0.00494985 0)
(-0.175864 0.00425808 0)
(-0.176129 0.00336364 0)
(-0.175656 0.00220148 0)
(-0.17426 0.000693186 0)
(-0.171742 -0.00125493 0)
(-0.167865 -0.00371793 0)
(-0.162451 -0.00679223 0)
(-0.155156 -0.0105579 0)
(-0.145539 -0.0150731 0)
(-0.133108 -0.0203344 0)
(-0.117405 -0.0262097 0)
(-0.0981967 -0.0323168 0)
(-0.0758062 -0.0377611 0)
(-0.0514916 -0.0405616 0)
(-0.0274132 -0.0365709 0)
(-0.00470487 -0.0174154 0)
(0.00925031 0.0135165 0)
(-0.00801737 0.0332823 0)
(-0.013578 0.00794721 0)
(-0.0161001 -0.0026119 0)
(-0.0163134 -0.00466176 0)
(-0.0156765 -0.00430135 0)
(-0.0147943 -0.00348688 0)
(-0.0139109 -0.0027374 0)
(-0.0131048 -0.00214533 0)
(-0.0123952 -0.00169531 0)
(-0.0117805 -0.00135445 0)
(-0.011252 -0.00109395 0)
(-0.0107989 -0.000892172 0)
(-0.010411 -0.000733577 0)
(-0.0100791 -0.000607099 0)
(-0.00979492 -0.000504826 0)
(-0.00955184 -0.000421042 0)
(-0.0093441 -0.00035157 0)
(-0.00916692 -0.000293315 0)
(-0.00901631 -0.000243953 0)
(-0.00888894 -0.000201715 0)
(-0.008782 -0.000165237 0)
(-0.00869313 -0.000133457 0)
(-0.00862035 -0.000105538 0)
(-0.00856196 -8.0808e-05 0)
(-0.00851654 -5.87183e-05 0)
(-0.00848286 -3.88057e-05 0)
(-0.00845988 -2.06479e-05 0)
(-0.00844669 -3.80864e-06 0)
(-0.00844226 1.18881e-05 0)
(-0.00844655 2.6397e-05 0)
(-0.00845888 3.98124e-05 0)
(-0.00847875 5.22864e-05 0)
(-0.00850573 6.39671e-05 0)
(-0.00853944 7.49914e-05 0)
(-0.00857954 8.54811e-05 0)
(-0.00862576 9.5542e-05 0)
(-0.00867789 0.000105265 0)
(-0.00873575 0.000114729 0)
(-0.00879919 0.000124003 0)
(-0.00886811 0.000133146 0)
(-0.00894245 0.000142213 0)
(-0.00902215 0.000151254 0)
(-0.00910722 0.000160315 0)
(-0.00919765 0.000169439 0)
(-0.00929348 0.000178668 0)
(-0.00939476 0.000188042 0)
(-0.00950159 0.000197599 0)
(-0.00961405 0.000207378 0)
(-0.00973228 0.000217418 0)
(-0.00985642 0.000227757 0)
(-0.00998663 0.000238435 0)
(-0.0101231 0.000249493 0)
(-0.0102661 0.000260971 0)
(-0.0104158 0.000272913 0)
(-0.0105724 0.000285364 0)
(-0.0107364 0.000298369 0)
(-0.0109079 0.000311979 0)
(-0.0110874 0.000326246 0)
(-0.0112752 0.000341228 0)
(-0.0114718 0.000356986 0)
(-0.0116775 0.000373587 0)
(-0.011893 0.000391104 0)
(-0.0121187 0.000409615 0)
(-0.0123551 0.000429206 0)
(-0.012603 0.000449968 0)
(-0.0128631 0.000472002 0)
(-0.013136 0.000495415 0)
(-0.0134226 0.000520325 0)
(-0.0137238 0.000546861 0)
(-0.0140405 0.000575164 0)
(-0.0143739 0.00060539 0)
(-0.014725 0.000637712 0)
(-0.0150952 0.000672323 0)
(-0.0154858 0.000709436 0)
(-0.0158984 0.000749289 0)
(-0.0163346 0.000792142 0)
(-0.0167964 0.000838293 0)
(-0.0172857 0.000888072 0)
(-0.0178049 0.00094185 0)
(-0.0183565 0.00100005 0)
(-0.0189432 0.00106313 0)
(-0.0195684 0.00113165 0)
(-0.0202355 0.00120622 0)
(-0.0209485 0.00128757 0)
(-0.0217121 0.00137654 0)
(-0.0225314 0.00147412 0)
(-0.0234124 0.00158153 0)
(-0.0243623 0.00170025 0)
(-0.0253891 0.00183211 0)
(-0.0265029 0.00197943 0)
(-0.0277157 0.00214524 0)
(-0.0290424 0.00233353 0)
(-0.030502 0.00254966 0)
(-0.0321187 0.00280069 0)
(-0.0339236 0.00309543 0)
(-0.0359546 0.00344361 0)
(-0.0382552 0.00385308 0)
(-0.0408665 0.00432388 0)
(-0.0438139 0.00483882 0)
(-0.0470856 0.00535304 0)
(-0.0506116 0.00578884 0)
(-0.0542519 0.00604287 0)
(-0.0578054 0.00600851 0)
(-0.061038 0.00560627 0)
(-0.0637232 0.0048093 0)
(-0.0656789 0.00365359 0)
(-0.0667936 0.00223056 0)
(-0.0670355 0.000665465 0)
(-0.0664634 -0.00091639 0)
(-0.0651789 -0.00240451 0)
(-0.0633907 -0.00368572 0)
(-0.0613038 -0.00469162 0)
(-0.0590865 -0.00539945 0)
(-0.0568676 -0.00581865 0)
(-0.0547427 -0.00597452 0)
(-0.0527853 -0.00589591 0)
(-0.0510572 -0.00560893 0)
(-0.0496174 -0.0051362 0)
(-0.0485286 -0.00449936 0)
(-0.0478629 -0.00371817 0)
(-0.047706 -0.00279328 0)
(-0.0481674 -0.00167653 0)
(-0.049482 -0.000314748 0)
(-0.051823 0.00123884 0)
(-0.0547784 0.00280115 0)
(-0.0582508 0.00422818 0)
(-0.0621833 0.00545202 0)
(-0.0665287 0.00644466 0)
(-0.0712331 0.00720792 0)
(-0.0762189 0.00776219 0)
(-0.0813833 0.00813518 0)
(-0.086606 0.00835391 0)
(-0.0917631 0.00843915 0)
(-0.0967406 0.00840365 0)
(-0.101443 0.00825256 0)
(-0.1058 0.00798605 0)
(-0.109762 0.00760385 0)
(-0.113306 0.00711035 0)
(-0.116422 0.00651842 0)
(-0.119117 0.00585033 0)
(-0.121408 0.00513562 0)
(-0.12332 0.0044069 0)
(-0.124885 0.0036959 0)
(-0.126142 0.00303111 0)
(-0.127134 0.00243642 0)
(-0.127907 0.00193012 0)
(-0.12851 0.00152468 0)
(-0.12899 0.00122719 0)
(-0.129392 0.00104022 0)
(-0.12976 0.000962895 0)
(-0.130132 0.000991817 0)
(-0.130541 0.00112144 0)
(-0.131019 0.00134425 0)
(-0.13159 0.00165182 0)
(-0.132276 0.00203486 0)
(-0.133094 0.00248307 0)
(-0.134055 0.00298515 0)
(-0.135166 0.00352911 0)
(-0.136428 0.0041025 0)
(-0.13784 0.00469271 0)
(-0.139393 0.00528723 0)
(-0.141077 0.00587379 0)
(-0.142876 0.00644069 0)
(-0.144772 0.00697705 0)
(-0.146745 0.00747314 0)
(-0.148772 0.00792062 0)
(-0.150829 0.00831263 0)
(-0.152892 0.00864386 0)
(-0.154937 0.00891059 0)
(-0.156939 0.00911054 0)
(-0.158876 0.00924272 0)
(-0.160726 0.00930711 0)
(-0.162468 0.00930432 0)
(-0.164084 0.00923503 0)
(-0.165557 0.00909946 0)
(-0.166871 0.00889681 0)
(-0.168011 0.00862451 0)
(-0.168963 0.00827742 0)
(-0.169712 0.00784695 0)
(-0.170239 0.00731986 0)
(-0.170527 0.00667689 0)
(-0.17055 0.00589084 0)
(-0.170278 0.00492377 0)
(-0.169671 0.00372277 0)
(-0.168675 0.00221653 0)
(-0.167193 0.000317779 0)
(-0.165132 -0.00206403 0)
(-0.162511 -0.00500922 0)
(-0.159057 -0.0086664 0)
(-0.154509 -0.0132242 0)
(-0.148514 -0.0188536 0)
(-0.140655 -0.0256674 0)
(-0.130466 -0.0336639 0)
(-0.117496 -0.042622 0)
(-0.101447 -0.0519104 0)
(-0.0823902 -0.0601281 0)
(-0.0610061 -0.0644456 0)
(-0.0387351 -0.0595861 0)
(-0.0178401 -0.0371069 0)
(0.00562036 0.0135808 0)
(-0.00657956 0.0429588 0)
(-0.0117947 0.0130591 0)
(-0.0147448 -0.00101424 0)
(-0.0156017 -0.00459231 0)
(-0.0155551 -0.00478828 0)
(-0.0151548 -0.00414442 0)
(-0.0146387 -0.00341506 0)
(-0.0141051 -0.00278437 0)
(-0.013595 -0.00227463 0)
(-0.0131254 -0.00186917 0)
(-0.0127021 -0.00154624 0)
(-0.012325 -0.00128708 0)
(-0.0119919 -0.00107707 0)
(-0.011699 -0.000905099 0)
(-0.0114427 -0.000762824 0)
(-0.011219 -0.000643931 0)
(-0.0110246 -0.000543624 0)
(-0.0108562 -0.000458224 0)
(-0.0107111 -0.000384887 0)
(-0.0105868 -0.00032139 0)
(-0.0104813 -0.00026598 0)
(-0.0103926 -0.000217258 0)
(-0.0103191 -0.0001741 0)
(-0.0102594 -0.000135595 0)
(-0.0102124 -0.000100992 0)
(-0.010177 -6.96645e-05 0)
(-0.0101521 -4.107e-05 0)
(-0.0101371 -1.47023e-05 0)
(-0.010131 9.87273e-06 0)
(-0.0101333 3.28459e-05 0)
(-0.0101437 5.42861e-05 0)
(-0.0101617 7.4356e-05 0)
(-0.0101871 9.32472e-05 0)
(-0.0102195 0.000111147 0)
(-0.0102586 0.000128225 0)
(-0.0103042 0.000144634 0)
(-0.0103562 0.000160508 0)
(-0.0104143 0.000175965 0)
(-0.0104784 0.000191109 0)
(-0.0105484 0.000206035 0)
(-0.0106244 0.000220828 0)
(-0.0107061 0.000235566 0)
(-0.0107937 0.000250321 0)
(-0.0108871 0.000265164 0)
(-0.0109864 0.000280159 0)
(-0.0110916 0.00029537 0)
(-0.0112028 0.000310859 0)
(-0.0113202 0.000326688 0)
(-0.0114439 0.000342919 0)
(-0.011574 0.000359614 0)
(-0.0117107 0.000376835 0)
(-0.0118543 0.000394649 0)
(-0.0120049 0.000413121 0)
(-0.0121627 0.00043232 0)
(-0.0123282 0.00045232 0)
(-0.0125016 0.000473196 0)
(-0.0126833 0.000495028 0)
(-0.0128735 0.000517904 0)
(-0.0130728 0.000541914 0)
(-0.0132817 0.000567159 0)
(-0.0135005 0.000593747 0)
(-0.0137298 0.000621793 0)
(-0.0139702 0.000651425 0)
(-0.0142224 0.00068278 0)
(-0.014487 0.000716007 0)
(-0.0147647 0.000751268 0)
(-0.0150565 0.00078874 0)
(-0.0153632 0.000828615 0)
(-0.0156858 0.000871106 0)
(-0.0160253 0.000916448 0)
(-0.0163829 0.000964898 0)
(-0.01676 0.00101674 0)
(-0.0171578 0.0010723 0)
(-0.0175781 0.00113193 0)
(-0.0180224 0.00119603 0)
(-0.0184927 0.00126504 0)
(-0.0189911 0.00133946 0)
(-0.0195198 0.00141986 0)
(-0.0200816 0.00150686 0)
(-0.0206792 0.00160119 0)
(-0.0213159 0.00170368 0)
(-0.0219954 0.00181528 0)
(-0.0227218 0.00193709 0)
(-0.0234998 0.00207043 0)
(-0.0243349 0.00221683 0)
(-0.0252332 0.00237812 0)
(-0.026202 0.00255655 0)
(-0.0272499 0.00275491 0)
(-0.028387 0.00297675 0)
(-0.0296258 0.00322669 0)
(-0.0309816 0.00351082 0)
(-0.0324737 0.00383736 0)
(-0.0341266 0.00421725 0)
(-0.0359716 0.00466453 0)
(-0.0380475 0.00519553 0)
(-0.0403988 0.00582536 0)
(-0.0430708 0.00655985 0)
(-0.046096 0.00738216 0)
(-0.0494749 0.00823681 0)
(-0.0531535 0.00901914 0)
(-0.0570083 0.00958082 0)
(-0.060849 0.00975682 0)
(-0.0644414 0.00940754 0)
(-0.0675477 0.0084599 0)
(-0.0699684 0.00693169 0)
(-0.0715785 0.0049323 0)
(-0.072348 0.00264175 0)
(-0.0723462 0.000273945 0)
(-0.0717332 -0.00196513 0)
(-0.0707072 -0.00389986 0)
(-0.0694787 -0.00542211 0)
(-0.0682031 -0.00650377 0)
(-0.0669909 -0.00716836 0)
(-0.0659192 -0.00746127 0)
(-0.0650468 -0.00742895 0)
(-0.0644262 -0.00710781 0)
(-0.0641138 -0.0065204 0)
(-0.064177 -0.00567513 0)
(-0.0646961 -0.00456455 0)
(-0.0657603 -0.00315909 0)
(-0.0674708 -0.00141767 0)
(-0.0700153 0.000636712 0)
(-0.0730956 0.00279941 0)
(-0.0763482 0.00484985 0)
(-0.0798977 0.0067396 0)
(-0.0837593 0.00845688 0)
(-0.0879126 0.00996011 0)
(-0.092313 0.0112042 0)
(-0.0968962 0.0121617 0)
(-0.101581 0.0128275 0)
(-0.106274 0.0132146 0)
(-0.11087 0.013345 0)
(-0.115269 0.0132432 0)
(-0.119376 0.0129319 0)
(-0.123116 0.0124316 0)
(-0.126436 0.0117618 0)
(-0.129304 0.0109438 0)
(-0.131714 0.0100034 0)
(-0.13368 0.0089718 0)
(-0.135233 0.0078858 0)
(-0.136413 0.00678571 0)
(-0.137272 0.00571212 0)
(-0.137863 0.00470201 0)
(-0.138241 0.00378709 0)
(-0.138459 0.00299295 0)
(-0.138567 0.00233747 0)
(-0.138611 0.00183045 0)
(-0.138629 0.00147454 0)
(-0.138655 0.00126709 0)
(-0.138714 0.00120193 0)
(-0.138826 0.00127072 0)
(-0.139007 0.00146346 0)
(-0.139266 0.00176874 0)
(-0.139611 0.00217397 0)
(-0.140047 0.00266551 0)
(-0.140575 0.00322876 0)
(-0.141194 0.00384834 0)
(-0.141899 0.00450826 0)
(-0.142684 0.00519226 0)
(-0.14354 0.00588412 0)
(-0.144454 0.00656802 0)
(-0.145414 0.00722888 0)
(-0.146402 0.00785272 0)
(-0.147404 0.00842689 0)
(-0.148401 0.00894041 0)
(-0.149376 0.00938424 0)
(-0.150312 0.00975137 0)
(-0.151192 0.0100369 0)
(-0.152 0.0102382 0)
(-0.152724 0.0103541 0)
(-0.15335 0.0103855 0)
(-0.15387 0.0103343 0)
(-0.154274 0.0102033 0)
(-0.154559 0.00999524 0)
(-0.15472 0.00971254 0)
(-0.154755 0.00935627 0)
(-0.154664 0.00892539 0)
(-0.154449 0.00841571 0)
(-0.154109 0.00781889 0)
(-0.153646 0.00712107 0)
(-0.15306 0.00630094 0)
(-0.152348 0.00532719 0)
(-0.151508 0.00415481 0)
(-0.150532 0.00272084 0)
(-0.149392 0.000944747 0)
(-0.148016 -0.00126355 0)
(-0.146535 -0.00400991 0)
(-0.144706 -0.0074819 0)
(-0.142385 -0.0119128 0)
(-0.139345 -0.0175362 0)
(-0.135282 -0.0245843 0)
(-0.129811 -0.0332355 0)
(-0.122478 -0.0435297 0)
(-0.112799 -0.0552224 0)
(-0.100355 -0.0675368 0)
(-0.084916 -0.0787399 0)
(-0.0666103 -0.0854443 0)
(-0.0461614 -0.0815542 0)
(-0.0252379 -0.0568062 0)
(-0.00268642 0.00444274 0)
(-0.0055326 0.0511413 0)
(-0.01049 0.0179763 0)
(-0.0135101 0.00107546 0)
(-0.0147146 -0.00404431 0)
(-0.0149946 -0.00484589 0)
(-0.0149029 -0.0044455 0)
(-0.014649 -0.00380796 0)
(-0.0143302 -0.00320062 0)
(-0.0139931 -0.00268162 0)
(-0.0136612 -0.00225133 0)
(-0.0133467 -0.00189678 0)
(-0.0130557 -0.00160393 0)
(-0.0127905 -0.00136063 0)
(-0.0125514 -0.00115707 0)
(-0.0123375 -0.000985459 0)
(-0.0121476 -0.000839674 0)
(-0.0119799 -0.000714884 0)
(-0.0118328 -0.00060727 0)
(-0.0117046 -0.000513794 0)
(-0.0115937 -0.000432028 0)
(-0.0114987 -0.000360016 0)
(-0.0114183 -0.000296173 0)
(-0.0113514 -0.000239199 0)
(-0.0112968 -0.000188028 0)
(-0.0112537 -0.000141771 0)
(-0.0112212 -9.96874e-05 0)
(-0.0111986 -6.11458e-05 0)
(-0.0111852 -2.55926e-05 0)
(-0.0111804 7.49091e-06 0)
(-0.0111834 3.85297e-05 0)
(-0.0111941 6.76819e-05 0)
(-0.0112121 9.51538e-05 0)
(-0.0112372 0.000121168 0)
(-0.0112691 0.000145941 0)
(-0.0113077 0.000169673 0)
(-0.0113527 0.000192548 0)
(-0.011404 0.000214728 0)
(-0.0114615 0.000236363 0)
(-0.0115251 0.000257588 0)
(-0.0115948 0.000278525 0)
(-0.0116704 0.000299287 0)
(-0.011752 0.000319978 0)
(-0.0118396 0.000340697 0)
(-0.0119332 0.000361536 0)
(-0.0120329 0.000382586 0)
(-0.0121387 0.000403934 0)
(-0.0122508 0.000425664 0)
(-0.0123692 0.000447862 0)
(-0.0124941 0.000470613 0)
(-0.0126256 0.000494003 0)
(-0.0127641 0.000518119 0)
(-0.0129096 0.000543052 0)
(-0.0130624 0.000568895 0)
(-0.0132229 0.000595744 0)
(-0.0133912 0.000623701 0)
(-0.0135678 0.000652874 0)
(-0.0137529 0.000683375 0)
(-0.013947 0.000715326 0)
(-0.0141505 0.000748856 0)
(-0.0143639 0.000784106 0)
(-0.0145877 0.000821227 0)
(-0.0148224 0.000860383 0)
(-0.0150687 0.00090175 0)
(-0.0153273 0.000945523 0)
(-0.0155988 0.000991911 0)
(-0.015884 0.00104114 0)
(-0.0161838 0.00109347 0)
(-0.0164992 0.00114917 0)
(-0.0168311 0.00120855 0)
(-0.0171807 0.00127193 0)
(-0.0175493 0.0013397 0)
(-0.0179381 0.00141225 0)
(-0.0183487 0.00149006 0)
(-0.0187828 0.00157364 0)
(-0.0192421 0.00166355 0)
(-0.0197286 0.00176046 0)
(-0.0202446 0.00186507 0)
(-0.0207926 0.00197823 0)
(-0.0213753 0.00210086 0)
(-0.0219958 0.00223405 0)
(-0.0226577 0.00237902 0)
(-0.023365 0.00253721 0)
(-0.024122 0.00271029 0)
(-0.024934 0.00290024 0)
(-0.0258068 0.00310943 0)
(-0.0267474 0.00334072 0)
(-0.0277638 0.00359763 0)
(-0.0288655 0.00388457 0)
(-0.030064 0.00420722 0)
(-0.0313732 0.00457301 0)
(-0.0328104 0.00499184 0)
(-0.0343972 0.00547693 0)
(-0.0361608 0.00604554 0)
(-0.0381349 0.00671877 0)
(-0.0403594 0.00751884 0)
(-0.0428773 0.00846161 0)
(-0.0457263 0.00954239 0)
(-0.0489247 0.010716 0)
(-0.0524518 0.0118781 0)
(-0.05623 0.0128601 0)
(-0.060117 0.0134494 0)
(-0.0639159 0.0134357 0)
(-0.0674045 0.0126684 0)
(-0.0703764 0.0111044 0)
(-0.0726825 0.00882867 0)
(-0.0742627 0.00604304 0)
(-0.0751585 0.00302825 0)
(-0.0755032 8.65951e-05 0)
(-0.0754843 -0.00251786 0)
(-0.0753027 -0.00461556 0)
(-0.0751086 -0.00614938 0)
(-0.0750018 -0.00713817 0)
(-0.0750502 -0.00763845 0)
(-0.0753033 -0.00771251 0)
(-0.0758052 -0.00740993 0)
(-0.076601 -0.00676056 0)
(-0.0777396 -0.00577535 0)
(-0.0792692 -0.00445031 0)
(-0.0812277 -0.00277535 0)
(-0.0836432 -0.000761098 0)
(-0.0865218 0.00150811 0)
(-0.089464 0.00381766 0)
(-0.0924888 0.00608432 0)
(-0.0957206 0.00831162 0)
(-0.0991549 0.0104484 0)
(-0.102756 0.0124039 0)
(-0.106477 0.0140963 0)
(-0.110264 0.0154645 0)
(-0.114052 0.016471 0)
(-0.117769 0.017102 0)
(-0.121336 0.0173635 0)
(-0.12467 0.0172768 0)
(-0.127693 0.0168728 0)
(-0.130337 0.016188 0)
(-0.132551 0.0152617 0)
(-0.134305 0.0141359 0)
(-0.135592 0.0128551 0)
(-0.136431 0.0114668 0)
(-0.136859 0.0100212 0)
(-0.136933 0.00856956 0)
(-0.136718 0.00716255 0)
(-0.13629 0.00584738 0)
(-0.13572 0.00466081 0)
(-0.135076 0.00362816 0)
(-0.134418 0.00276818 0)
(-0.133796 0.00209077 0)
(-0.13325 0.00159696 0)
(-0.132806 0.00128103 0)
(-0.132477 0.00113385 0)
(-0.132269 0.0011429 0)
(-0.132176 0.00129321 0)
(-0.13219 0.00156973 0)
(-0.1323 0.00195804 0)
(-0.132496 0.0024434 0)
(-0.132763 0.00301034 0)
(-0.13309 0.00364259 0)
(-0.133463 0.00432312 0)
(-0.133868 0.00503447 0)
(-0.134293 0.00575894 0)
(-0.134722 0.00647903 0)
(-0.135143 0.00717778 0)
(-0.13554 0.00783927 0)
(-0.135899 0.00844898 0)
(-0.136209 0.00899416 0)
(-0.136455 0.00946417 0)
(-0.136627 0.00985065 0)
(-0.136714 0.0101477 0)
(-0.136708 0.0103519 0)
(-0.136603 0.0104622 0)
(-0.136395 0.0104796 0)
(-0.13608 0.0104072 0)
(-0.13566 0.0102489 0)
(-0.135137 0.0100097 0)
(-0.134514 0.00969444 0)
(-0.1338 0.00930715 0)
(-0.133002 0.00885036 0)
(-0.13213 0.0083241 0)
(-0.131195 0.00772472 0)
(-0.130209 0.00704389 0)
(-0.129185 0.0062677 0)
(-0.128137 0.00537448 0)
(-0.12708 0.00433155 0)
(-0.126035 0.003092 0)
(-0.125017 0.00159258 0)
(-0.124016 -0.000243013 0)
(-0.123115 -0.00250205 0)
(-0.122291 -0.00535754 0)
(-0.121412 -0.00906954 0)
(-0.120378 -0.0139059 0)
(-0.119015 -0.0201674 0)
(-0.117068 -0.0281663 0)
(-0.114183 -0.0381707 0)
(-0.109903 -0.0503019 0)
(-0.10369 -0.064359 0)
(-0.0949746 -0.0795292 0)
(-0.0832378 -0.0939173 0)
(-0.0681219 -0.103802 0)
(-0.0496509 -0.102485 0)
(-0.0288309 -0.0785281 0)
(-0.00873027 -0.0151131 0)
(-0.00474637 0.0583228 0)
(-0.00952547 0.0226238 0)
(-0.0125343 0.00318351 0)
(-0.0138427 -0.00326053 0)
(-0.0143127 -0.00465531 0)
(-0.0144106 -0.00451925 0)
(-0.0143309 -0.00400268 0)
(-0.0141659 -0.00344921 0)
(-0.0139608 -0.0029495 0)
(-0.0137402 -0.00251946 0)
(-0.0135186 -0.00215447 0)
(-0.0133043 -0.0018454 0)
(-0.0131023 -0.00158306 0)
(-0.0129153 -0.00135943 0)
(-0.0127444 -0.00116778 0)
(-0.0125899 -0.00100261 0)
(-0.0124515 -0.000859409 0)
(-0.0123286 -0.000734503 0)
(-0.0122204 -0.000624896 0)
(-0.0121261 -0.000528134 0)
(-0.0120449 -0.000442202 0)
(-0.011976 -0.000365436 0)
(-0.0119185 -0.000296456 0)
(-0.0118718 -0.000234111 0)
(-0.0118351 -0.000177434 0)
(-0.011808 -0.00012561 0)
(-0.0117898 -7.79456e-05 0)
(-0.01178 -3.38406e-05 0)
(-0.0117782 7.25015e-06 0)
(-0.0117837 4.58069e-05 0)
(-0.0117965 8.21774e-05 0)
(-0.011816 0.000116631 0)
(-0.0118423 0.000149426 0)
(-0.0118751 0.000180801 0)
(-0.0119142 0.00021098 0)
(-0.0119596 0.000240166 0)
(-0.0120111 0.000268548 0)
(-0.0120686 0.000296295 0)
(-0.0121322 0.000323568 0)
(-0.0122017 0.00035051 0)
(-0.0122772 0.000377259 0)
(-0.0123586 0.000403942 0)
(-0.0124459 0.00043068 0)
(-0.0125393 0.000457589 0)
(-0.0126387 0.00048478 0)
(-0.0127444 0.000512362 0)
(-0.0128563 0.000540444 0)
(-0.0129746 0.000569133 0)
(-0.0130995 0.000598536 0)
(-0.0132311 0.000628763 0)
(-0.0133697 0.000659927 0)
(-0.0135155 0.000692141 0)
(-0.0136686 0.000725527 0)
(-0.0138295 0.000760209 0)
(-0.0139984 0.000796317 0)
(-0.0141757 0.000833991 0)
(-0.0143616 0.000873378 0)
(-0.0145567 0.000914634 0)
(-0.0147613 0.000957928 0)
(-0.014976 0.00100344 0)
(-0.0152013 0.00105137 0)
(-0.0154376 0.00110193 0)
(-0.0156858 0.00115534 0)
(-0.0159464 0.00121186 0)
(-0.0162201 0.00127177 0)
(-0.0165078 0.00133535 0)
(-0.0168104 0.00140295 0)
(-0.0171288 0.00147491 0)
(-0.017464 0.00155165 0)
(-0.0178173 0.00163359 0)
(-0.0181898 0.00172124 0)
(-0.018583 0.00181512 0)
(-0.0189983 0.00191586 0)
(-0.0194375 0.00202412 0)
(-0.0199025 0.00214067 0)
(-0.0203952 0.00226637 0)
(-0.020918 0.0024022 0)
(-0.0214734 0.00254925 0)
(-0.0220643 0.00270878 0)
(-0.0226939 0.00288225 0)
(-0.0233658 0.00307134 0)
(-0.024084 0.00327799 0)
(-0.0248533 0.00350449 0)
(-0.0256789 0.00375355 0)
(-0.026567 0.00402844 0)
(-0.0275247 0.00433313 0)
(-0.0285604 0.00467252 0)
(-0.0296839 0.0050528 0)
(-0.0309069 0.00548191 0)
(-0.0322439 0.00597026 0)
(-0.0337123 0.00653161 0)
(-0.0353336 0.00718407 0)
(-0.0371342 0.00795063 0)
(-0.0391457 0.00885801 0)
(-0.0414038 0.00993169 0)
(-0.0439447 0.0111844 0)
(-0.0467968 0.0125968 0)
(-0.0499687 0.014093 0)
(-0.0534332 0.0155215 0)
(-0.0571146 0.0166574 0)
(-0.0608844 0.0172362 0)
(-0.0645722 0.0170165 0)
(-0.0679931 0.0158506 0)
(-0.0709853 0.0137372 0)
(-0.0734479 0.0108357 0)
(-0.0753643 0.00744022 0)
(-0.0768045 0.00391798 0)
(-0.0779005 0.000630107 0)
(-0.0787897 -0.00214426 0)
(-0.0796199 -0.00425711 0)
(-0.080497 -0.00570474 0)
(-0.0814896 -0.00654014 0)
(-0.0826453 -0.00683923 0)