/*--------------------------------*- C++ -*----------------------------------*\
  =========                 |
  \\      /  F ield         | OpenFOAM: The Open Source CFD Toolbox
   \\    /   O peration     | Website:  https://openfoam.org
    \\  /    A nd           | Version:  12
     \\/     M anipulation  |
\*---------------------------------------------------------------------------*/
FoamFile
{
    format      ascii;
    class       volVectorField;
    location    "10";
    object      U;
}
// * * * * * * * * * * * * * * * * * * * * * * * * * * * * * * * * * * * * * //

dimensions      [0 1 -1 0 0 0 0];

internalField   nonuniform List<vector> 
40000
(
(-0.011955706250228038 0.0083803740270151136 -9.6478742575121264e-25)
(-0.017097422316390672 -0.00020304977473705867 1.437793384713717e-26)
(-0.014983513128912621 -0.0017467369686322569 0)
(-0.011886644110089937 -0.0015147434254745148 -3.8123114577253999e-26)
(-0.0092813493992257318 -0.0010394343173539421 -1.8376480798901822e-26)
(-0.0074218667550291504 -0.00067076761796488473 8.5293442744752055e-27)
(-0.0061318578472514679 -0.0004300334245168877 3.6699880219598568e-27)
(-0.0052259257043866377 -0.00027994983667976533 0)
(-0.0045736650820151162 -0.00018700471070032753 -1.01271264723729e-29)
(-0.0040920058880565789 -0.0001287085851215695 5.5421770964696618e-28)
(-0.0037278229617189228 -9.1250329926825642e-05 0)
(-0.0034467068317840036 -6.6459498391413367e-05 8.5191249556315564e-28)
(-0.0032259321616298011 -4.9528929296924247e-05 8.359617585541862e-28)
(-0.0030501364359248962 -3.7599283383490444e-05 0)
(-0.0029086773923532906 -2.8938647617888444e-05 0)
(-0.0027940031660676737 -2.2474782670289336e-05 0)
(-0.0027006330676630648 -1.7526839225672406e-05 0)
(-0.0026245025498219713 -1.3652599151398651e-05 0)
(-0.0025625415573746198 -1.0556040731043501e-05 0)
(-0.0025123923232467454 -8.0332998593335466e-06 0)
(-0.0024722141308272786 -5.9427622109454463e-06 0)
(-0.0024405544116827436 -4.1829051206737098e-06 0)
(-0.0024162516087079229 -2.6787664224902047e-06 2.9545309646733702e-28)
(-0.0023983683711952214 -1.3736294580156781e-06 2.6478686694078428e-28)
(-0.002386154326530734 -2.177874711419879e-07 -2.3869966833898985e-28)
(-0.0023790105564790386 8.4512481854805847e-07 -2.1949748761084112e-28)
(-0.0023764084248249998 1.8660575090858641e-06 0)
(-0.0023781428420665629 2.7332597228990403e-06 1.8101743361808348e-28)
(-0.0023839705468023309 3.462550488587359e-06 1.5565760573295197e-28)
(-0.0023933397650371356 4.1338616320321213e-06 -1.3881751280774103e-28)
(-0.002405913130843399 4.7824344373546769e-06 -1.2386571011479827e-28)
(-0.0024214751544465894 5.3950289045681836e-06 0)
(-0.0024398495959984429 5.9736979017061366e-06 0)
(-0.0024608771545176094 6.5252629414924355e-06 0)
(-0.0024844271787803456 7.056594171118414e-06 0)
(-0.0025103968105157268 7.5743362515659408e-06 0)
(-0.0025387051163414031 8.0841559432423814e-06 0)
(-0.002569290692522104 8.5897917156649277e-06 0)
(-0.0026021114286106945 9.093881788871407e-06 0)
(-0.0026371414137935857 9.5994125968578473e-06 -4.2370204857303347e-29)
(-0.0026743670863366175 1.0109793938645836e-05 -3.758489414506603e-29)
(-0.0027137864849246969 1.0627924455514278e-05 0)
(-0.0027554102614591991 1.1156002676807206e-05 0)
(-0.0027992610479613072 1.1696277119935165e-05 0)
(-0.0028453713597279841 1.2251585067223105e-05 0)
(-0.002893782795048538 1.28249123246903e-05 0)
(-0.0029445470011819756 1.3418730895829656e-05 0)
(-0.0029977266648678219 1.4035069485196949e-05 0)
(-0.0030533949310387496 1.467603721639698e-05 0)
(-0.0031116342332882362 1.5344146925893832e-05 0)
(-0.0031725360887600372 1.6042126829061735e-05 0)
(-0.0032362017789423873 1.6772548151320905e-05 0)
(-0.0033027434443514293 1.7537913664802979e-05 0)
(-0.0033722842073577596 1.8340965955656588e-05 0)
(-0.0034449575424842678 1.918469637131373e-05 0)
(-0.0035209074678569604 2.0072172655149157e-05 4.5081172972276061e-29)
(-0.0036002897028288025 2.1006520898488218e-05 5.0031894201231679e-29)
(-0.0036832735682838457 2.1991271746411594e-05 0)
(-0.0037700430795911603 2.3030502207312552e-05 -6.2514311419420665e-29)
(-0.003860797035946965 2.4128357342136065e-05 -7.1457065232314652e-29)
(-0.003955750459187354 2.5288977849237806e-05 0)
(-0.0040551371220523399 2.6517299430977792e-05 8.8520690968217982e-29)
(-0.0041592114834046526 2.7819620224845169e-05 9.7068947153081688e-29)
(-0.0042682492459702138 2.9202862926172415e-05 0)
(-0.0043825478132330006 3.0673344658873045e-05 1.2210870212882389e-28)
(-0.0045024291211112526 3.2237094266650736e-05 1.3521830214555577e-28)
(-0.0046282429834051146 3.3901404681498889e-05 0)
(-0.0047603682483761843 3.5675191018506832e-05 0)
(-0.0048992129475796667 3.756736409530458e-05 -1.8778219171240698e-28)
(-0.005045216043632254 3.9585325735686506e-05 -2.1340362746820933e-28)
(-0.0051988530383158078 4.1736233848129942e-05 -2.3310715644095643e-28)
(-0.0053606430823004494 4.4030185227504759e-05 -2.4463521426652421e-28)
(-0.0055311526813635742 4.6481455494220484e-05 0)
(-0.0057109968572218251 4.9106282454093298e-05 -2.7645830889992992e-28)
(-0.0059008421847820316 5.1919968117718826e-05 0)
(-0.0061014142219295185 5.493677654147109e-05 3.4573576054657255e-28)
(-0.0063135079615629164 5.8172513373096785e-05 0)
(-0.0065379962770683404 6.164625794924718e-05 0)
(-0.0067758343399169658 6.5379081233196356e-05 0)
(-0.0070280648124179303 6.9391949022993071e-05 0)
(-0.0072958289460180173 7.3706530675016058e-05 0)
(-0.0075803825249574942 7.8348815132197515e-05 0)
(-0.0078831112785129696 8.335114434219531e-05 0)
(-0.0082055436761179906 8.8749752193520144e-05 0)
(-0.008549367154871956 9.4580731599232685e-05 0)
(-0.0089164566475247124 0.00010088022581479354 0)
(-0.0093089159584461272 0.00010769050363234546 0)
(-0.0097291237090042018 0.00011506692522608321 0)
(-0.010179780249867465 0.00012307979667593687 0)
(-0.010663965119605271 0.00013181062592768016 0)
(-0.011185221800449958 0.00014134771914868911 0)
(-0.011747681664945286 0.00015178560479851705 0)
(-0.01235622460957104 0.00016322545772482546 0)
(-0.013016661721325991 0.00017576347231335927 0)
(-0.013735918688878426 0.00018945042838778558 0)
(-0.014522170084056341 0.0002042143185254535 0)
(-0.015384798180383274 0.00021975249478613384 0)
(-0.016333931513640269 0.00023541969680103197 0)
(-0.017379179341565344 0.00025016951096571138 0)
(-0.018527068112864257 0.00026261830208585633 0)
(-0.019776741069749169 0.00027121681984146648 0)
(-0.02111395437233872 0.00027431798532019793 0)
(-0.022504496999818189 0.00026985133944702278 0)
(-0.023889657869284625 0.00025471200952001323 0)
(-0.025187324011203313 0.00022472217811675676 0)
(-0.026301464089291578 0.00017612853165000693 0)
(-0.027139137375705429 0.0001082623781645752 0)
(-0.027626980638031633 2.6459447655656493e-05 0)
(-0.027720566302302192 -5.3705210678401091e-05 0)
(-0.027450464335885442 -0.00011624522631822768 0)
(-0.026793411844149306 -0.0001898561857204729 0)
(-0.025755753422156188 -0.0002808971465957819 0)
(-0.024377139280025373 -0.00038101691449019394 0)
(-0.022720635254201177 -0.00047719726866900491 0)
(-0.020866628915880186 -0.00055680028176287712 0)
(-0.018904100212381508 -0.00060997336378200938 1.4381266840803304e-26)
(-0.016923525541524705 -0.00063034784642297366 1.8496677191881825e-26)
(-0.015012325368168954 -0.00061478138991257359 0)
(-0.01325204047017799 -0.00056277126949981742 0)
(-0.011715858300615877 -0.00047584541190554138 0)
(-0.010465625703621629 -0.00035723730327963984 0)
(-0.0095479167019179301 -0.00021198825762558854 0)
(-0.0089875917234137574 -4.7202045499371008e-05 0)
(-0.0087729549664394991 0.00012164163802501869 0)
(-0.0089380089274674248 0.00025223043983788193 -3.5991673286047348e-26)
(-0.0095131667790723535 0.00034050850618933079 -2.495736167614152e-39)
(-0.010418061902998451 0.00037631792307120301 1.0882302615707771e-26)
(-0.01154820647601535 0.00035512120775010029 0)
(-0.012791651932847549 0.00027506005509209033 -2.1402651137578107e-26)
(-0.014060726259544689 0.0001430818169664792 -3.7017618812993407e-26)
(-0.015307859225512435 -1.6155079566177374e-05 -4.834052787855397e-26)
(-0.016529531567916693 -0.00016606130897677343 -5.3322418316513272e-26)
(-0.017761629643595213 -0.0002690816157263022 0)
(-0.01905992332183103 -0.0002996607271111213 0)
(-0.020473692779249146 -0.00025362240876630033 0)
(-0.022023586990440817 -0.00014878115793246093 -2.4439766893793281e-26)
(-0.023691465589085508 -1.6574022126661947e-05 -1.7321001523515789e-26)
(-0.025424812196854017 0.00011045838990499344 0)
(-0.027152024223937615 0.00020862773533412702 0)
(-0.028800562699629148 0.00026701054984828234 0)
(-0.030310733140069376 0.00028590732832697272 0)
(-0.031642191611572189 0.0002725009421642101 0)
(-0.032774408788898431 0.00023642493420965454 0)
(-0.033703934287840014 0.00018683175247705052 1.3551042515068601e-26)
(-0.034440704750867267 0.00013112753089895447 1.3849312089949828e-26)
(-0.035004515565584163 7.483385797534777e-05 0)
(-0.035422066589462863 2.1978749697846268e-05 0)
(-0.035724658787921394 -2.4421397725980573e-05 0)
(-0.035946456800862371 -6.2137384531798579e-05 0)
(-0.036123297694498901 -8.9903269983520007e-05 0)
(-0.036292271577450741 -0.0001075409271957293 0)
(-0.03649145138535978 -0.00011470611822220572 0)
(-0.03675750867752222 -0.00010885477691914578 0)
(-0.037124855153799978 -8.7857122634387911e-05 0)
(-0.037626862788533125 -5.0839001293668778e-05 0)
(-0.038295121111287196 2.5740557187084822e-06 0)
(-0.039158368934750117 7.2608273510536858e-05 0)
(-0.040241996108032127 0.0001593407436137136 0)
(-0.041567666858050384 0.00026256270579102468 0)
(-0.043152955426650021 0.00038163336273993681 0)
(-0.045011013310057565 0.00051538351875244205 0)
(-0.047150303350221176 0.00066209437386295059 0)
(-0.049574438963548136 0.00081955258915449199 1.7526706496797813e-26)
(-0.052282173412271191 0.00098516074147901264 1.5254285990921366e-26)
(-0.05526756302633954 0.0011560773018451274 0)
(-0.058520288310790265 0.0013293738682759041 0)
(-0.06202610675304579 0.0015021990597982727 0)
(-0.065767407900399782 0.0016719430057425566 0)
(-0.069723839486326489 0.0018363761282933514 0)
(-0.073872967799907999 0.0019937350194723273 6.2146539229022752e-27)
(-0.078190916845672379 0.0021427415086989364 1.0655661286699754e-26)
(-0.082652927926274489 0.0022825611522817976 0)
(-0.08723378633044887 0.0024127236053087548 0)
(-0.091908049829426783 0.0025330353753565968 0)
(-0.096650060496108345 0.0026434247515951144 2.9702356444191821e-26)
(-0.10143373150501758 0.0027437416885036457 3.5093859005191303e-26)
(-0.10623205687516697 0.0028335448050944619 0)
(-0.11101629901663874 0.0029118633005563708 0)
(-0.11575479028563086 0.0029769049731226968 0)
(-0.12041125694743292 0.0030256847888901106 0)
(-0.12494259699224922 0.0030535623760265724 0)
(-0.12929603026389641 0.0030536322810575892 0)
(-0.13340528326951326 0.0030157373032811369 0)
(-0.13718499097207595 0.0029247729691216774 0)
(-0.14052213098825939 0.0027585018596622164 2.1398246402454486e-25)
(-0.14326315200683465 0.0024860941028267188 2.8320240929628359e-25)
(-0.14519671876677026 0.0020654896836861275 -3.8298975868521419e-25)
(-0.1460476206638974 0.0014268807328162026 -5.3064603044225548e-25)
(-0.14553915694171216 0.0004572466180477984 6.8143595985152503e-25)
(-0.14313573369440347 -0.0008455520184293588 8.4251604770228291e-25)
(-0.13834120862225796 -0.0024864253752432041 -1.02801176551858e-24)
(-0.13061834387782878 -0.0044863254904469827 -1.2417004890174643e-24)
(-0.11939794172609301 -0.0068533561648718346 0)
(-0.10415804755802129 -0.0095524425343958153 1.7214298357896058e-24)
(-0.084645929583793814 -0.01245592571707803 1.9248467743855567e-24)
(-0.061315714090876904 -0.015220625942582791 -2.0004813297673903e-24)
(-0.035790636729880032 -0.016971799613178899 -1.8522266721530964e-24)
(-0.010363842216338674 -0.015524488043309354 0)
(0.013403391943985359 -0.0017559168114379591 8.3075068672915283e-25)
(0.010698575794028485 0.0066856042430704088 7.7687899255713628e-25)
(-0.010058765434222442 0.021449508362885956 -7.7455511749087609e-24)
(-0.016150496794512213 0.0024473768815369058 -6.7004894439696801e-25)
(-0.017206655480465096 -0.0035495881520111691 0)
(-0.016117827714248849 -0.0039871882048620301 -2.2131739727656566e-25)
(-0.014491285483004091 -0.0032173148994263305 -1.3202467730390688e-25)
(-0.012949949158220651 -0.0023914189804511493 2.4764798710504288e-26)
(-0.011654274662778427 -0.0017492832111423978 -1.3816111778529254e-26)
(-0.010600099357000611 -0.001289522850048787 -1.5340222082593545e-26)
(-0.0097477830379222256 -0.00096639948682250988 -1.261616764486773e-26)
(-0.0090566775810951416 -0.00073784008859356588 -6.6833104342730881e-27)
(-0.0084930158197867051 -0.00057342481415346991 0)
(-0.0080303020552789008 -0.00045266930393009105 -4.186512810061786e-28)
(-0.0076481069985455969 -0.00036204090228180688 -2.7848094002681196e-29)
(-0.0073307297725385802 -0.0002925807667840801 0)
(-0.007066064141431125 -0.00023828897822599651 0)
(-0.0068447121288580026 -0.00019508325065204535 0)
(-0.0066593220790561502 -0.00016013307958401407 0)
(-0.0065040901433621586 -0.00013143869525362553 0)
(-0.0063743927488191503 -0.00010756058762034256 0)
(-0.006266515697281325 -8.7442292655174448e-05 0)
(-0.0061774453390471794 -7.0297547586431963e-05 0)
(-0.0061047204163917589 -5.5531939286708045e-05 0)
(-0.0060463192051759106 -4.2685395952632344e-05 1.3733116712325465e-27)
(-0.0060005676396657943 -3.1394300163860318e-05 1.3521408320933451e-27)
(-0.0059660740145401174 -2.1360118212639386e-05 -1.3376194413389206e-27)
(-0.0059416896519093642 -1.2318463582050466e-05 -1.338383393086098e-27)
(-0.0059265096579880624 -4.0296384435228651e-06 0)
(-0.0059195129898824304 3.6166388957602883e-06 1.3840497864025076e-27)
(-0.0059204159031370617 1.0646819969272005e-05 1.388498292511294e-27)
(-0.0059288348677930544 1.7070538819645088e-05 -4.6082436289272435e-28)
(-0.0059440293075506898 2.2990340477815973e-05 -4.6055772701213594e-28)
(-0.0059654870006123862 2.8481523635396674e-05 0)
(-0.0059927740170336247 3.3616483988864243e-05 9.2544305471195396e-28)
(-0.0060255344950386515 3.8461434229081067e-05 9.3156695895537172e-28)
(-0.0060634764306023436 4.3074589180979871e-05 -9.4058114720661891e-28)
(-0.0061063627856572569 4.7505644201369854e-05 -9.5256591651951157e-28)
(-0.0061540035769514579 5.1796553896135064e-05 0)
(-0.0062062500077229923 5.5982847512167352e-05 0)
(-0.0062629897958909166 6.009547291691111e-05 0)
(-0.0063241421681768566 6.4162150954594446e-05 -1.5430227497942744e-27)
(-0.0063896537473670887 6.8207871565436487e-05 -1.5830230726020636e-27)
(-0.0064594962012540953 7.2255083129475219e-05 0)
(-0.0065336645234479905 7.6324504093943545e-05 0)
(-0.0066121750692318317 8.0436090769191805e-05 0)
(-0.0066950636986906186 8.4609268100157813e-05 0)
(-0.0067823853425055926 8.886269027996145e-05 0)
(-0.006874214073611531 9.3214021904537556e-05 0)
(-0.0069706428874307443 9.7680432393145675e-05 0)
(-0.0070717829849119354 0.00010227929181163286 0)
(-0.0071777631060543053 0.00010702836526830683 -1.5093928937463957e-27)
(-0.0072887301400704398 0.00011194583944126154 -1.5885901377192795e-27)
(-0.0074048497610933886 0.00011705006037360917 0)
(-0.0075263071482676606 0.00012235975481240195 0)
(-0.0076533077667601092 0.00012789468905457531 0)
(-0.0077860775625692037 0.00013367567382775055 0)
(-0.0079248639031281268 0.00013972433819994193 1.0366723428095855e-27)
(-0.008069936886030948 0.00014606302433486091 1.0949634213617743e-27)
(-0.0082215914917285974 0.00015271554997362013 0)
(-0.0083801501391227665 0.00015970838780274095 -3.6662000473585777e-27)
(-0.0085459633376815704 0.00016707035712124559 -3.8853611695085585e-27)
(-0.0087194106350512845 0.0001748320720359353 0)
(-0.0089009033648945329 0.00018302668618614643 4.3732381984850156e-27)
(-0.0090908885218042145 0.00019169119948805383 4.6358146121488503e-27)
(-0.0092898523678360823 0.00020086668560221162 0)
(-0.0094983216478972034 0.00021059646827460934 5.2439725538769234e-27)
(-0.0097168661730104629 0.00022092533062445296 9.3087752288155201e-27)
(-0.009946105108444828 0.00023190176948575605 3.9581238298447401e-27)
(-0.010186713075671705 0.00024358008583339971 0)
(-0.01043942452410525 0.00025602007284345873 -6.7354375149393289e-27)
(-0.010705036733375218 0.00026928521748546477 -2.40556286769012e-27)
(-0.010984414641256686 0.00028344254721894243 2.5760655603402424e-27)
(-0.011278500879510503 0.00029856639540900182 -2.7460844197510638e-27)
(-0.01158832692709758 0.00031474263506087212 0)
(-0.011915021875689298 0.00033206917050328607 -9.3097668160160791e-27)
(-0.012259820743110113 0.00035065390952045508 -6.6294450694553444e-27)
(-0.012624074538647051 0.00037061372646054748 3.5500570088738224e-27)
(-0.013009264618537594 0.00039207632012416133 0)
(-0.013417021233656689 0.00041518386807241724 0)
(-0.013849142537443791 0.0004400952555474867 -8.70657291347195e-27)
(-0.014307613987451643 0.0004669863044982605 -9.330921085115913e-27)
(-0.014794631820080161 0.00049605154204756304 0)
(-0.015312633318846332 0.00052751013275912381 0)
(-0.015864335524368257 0.00056161445680606465 0)
(-0.016452781271254994 0.00059865780449535461 0)
(-0.017081390160912775 0.00063897926182201797 0)
(-0.017754019290339332 0.00068296894087579996 0)
(-0.018475045419477917 0.00073108085165919635 0)
(-0.019249478978576925 0.00078385749822192704 0)
(-0.020083118741142252 0.00084196346238753249 0)
(-0.020982758544263146 0.00090622397193913643 0)
(-0.021956466846023898 0.00097766995328112615 0)
(-0.023013979957541557 0.0010575984696195935 0)
(-0.024167264611625584 0.0011476553403025919 0)
(-0.025431288811713318 0.0012499231268405353 0)
(-0.026824965848234995 0.0013669590277721403 0)
(-0.028372050520162815 0.0015016776030359041 0)
(-0.030101379709203364 0.0016568873252250673 0)
(-0.032045227364760558 0.0018341549376319187 0)
(-0.034233920069615176 0.002031570399517292 0)
(-0.03668496206898314 0.0022401737017153961 0)
(-0.039386817179358637 0.0024396592482408019 0)
(-0.042281503204651398 0.0025955709568189281 0)
(-0.045254236171080001 0.0026615167892166938 0)
(-0.048138428324587867 0.0025888527828815478 0)
(-0.050738231335395158 0.0023419941388797792 0)
(-0.052861969479585352 0.0019127663143808479 0)
(-0.054353222499743614 0.0013265026027942403 0)
(-0.055106049539460834 0.00063710703744491613 0)
(-0.055078175005401901 -9.1484867183698487e-05 0)
(-0.054301117612040435 -0.0008243307159019643 0)
(-0.052842690934787918 -0.0015431069902474414 0)
(-0.050838037419780241 -0.0021966994020546776 0)
(-0.048446955234412878 -0.0027357772821273909 0)
(-0.045825441041574148 -0.0031304510433081837 0)
(-0.043110435291620355 -0.0033697916160254911 0)
(-0.040416710755249587 -0.0034555146795835728 7.9946952523631607e-26)
(-0.037839954383922972 -0.0033957380531874806 1.0654206978023902e-25)
(-0.035461543842319358 -0.003201184397712041 0)
(-0.03335233532090337 -0.0028845697057501398 0)
(-0.031574543885489526 -0.0024633732124947102 0)
(-0.03018211720112687 -0.001964703426305428 1.3275433563266781e-25)
(-0.029221842802178571 -0.0014237528396594829 1.2786842068737068e-25)
(-0.0287446580225773 -0.00085843301951731639 0)
(-0.028853457374901491 -0.00024131695315635741 0)
(-0.029734254648286978 0.00042369555989374549 -6.3135372510494952e-26)
(-0.031315534800183537 0.0010756516323433653 1.0878987761731153e-25)
(-0.033567673961195962 0.0016452961936475709 1.1924314634091408e-25)
(-0.036426009340867559 0.0020886496747572047 0)
(-0.039811138000852481 0.0023939855723239846 3.6126090777259793e-27)
(-0.043628893037301254 0.0025885655640259988 1.2430931646283272e-26)
(-0.047782124838859401 0.0027295026503024152 -2.3560782729902419e-26)
(-0.052171029975399998 0.0028742318989179818 -8.6475545523748899e-26)
(-0.056686158059058626 0.0030527037790768837 0)
(-0.06121135798340506 0.0032560599707729598 0)
(-0.065636352406941462 0.0034456226694741091 0)
(-0.069870427055880563 0.0035743084811419518 -1.9057638693862172e-27)
(-0.073848293820595004 0.0036063897155892539 3.3605273102073065e-26)
(-0.077527003938794553 0.003526719786006612 0)
(-0.080878962432680696 0.0033401855834381969 0)
(-0.083886477473906859 0.0030660352886648537 0)
(-0.086540145872844185 0.0027309556827507606 0)
(-0.088839709199839273 0.0023630680089793046 0)
(-0.090795172260571599 0.0019880632202154669 0)
(-0.092427152533369555 0.0016275968276629371 -2.4766852882198763e-26)
(-0.093766243600637081 0.0012989230739720123 -1.7211796466999899e-26)
(-0.094851425955278332 0.0010150408136094925 0)
(-0.09572784103940582 0.00078512704965164959 0)
(-0.096444413732805614 0.00061510792995427021 0)
(-0.097051663327431995 0.00050820718719169009 0)
(-0.0975996946307226 0.0004653968003334006 -7.0208587223993418e-26)
(-0.098136240978693098 0.00048591614965986748 -9.2996722185777358e-26)
(-0.098705588283966542 0.00056804135293204874 0)
(-0.099350059161015775 0.00070952377093930338 0)
(-0.10010817026660999 0.00090669817531827427 0)
(-0.10101248143757531 0.0011549010889211351 0)
(-0.10209066925833973 0.001448728343890712 0)
(-0.10336522559277861 0.0017820785176292189 0)
(-0.10485314085804817 0.002148253704996844 0)
(-0.10656574859971123 0.0025400760982658018 0)
(-0.1085086968736078 0.0029499964301652019 0)
(-0.1106820565191526 0.0033702209671419292 0)
(-0.11308057261915641 0.0037928916802518206 0)
(-0.11569403100022108 0.0042103083477402093 8.8046488872934762e-26)
(-0.11850770569743184 0.0046151552340810307 7.7965636280499157e-26)
(-0.12150286401472468 0.005000698472233841 -1.3173550270065995e-25)
(-0.12465732550137264 0.0053609466327437585 -1.0410759120881966e-25)
(-0.12794608061029489 0.0056907758477978436 0)
(-0.1313419557800197 0.0059860223124263215 0)
(-0.13481628656819544 0.0062435221170575143 0)
(-0.13833954372269905 0.0064610761101301052 1.3688701859467732e-26)
(-0.14188187231071756 0.0066373345281415938 3.1231543593367746e-26)
(-0.14541352070868033 0.0067716132373029196 0)
(-0.14890512749957843 0.0068636557636500639 0)
(-0.15232787114818827 0.0069133449947920353 0)
(-0.15565342051255535 0.0069203570607247172 3.0723889446640955e-25)
(-0.15885362484051072 0.0068837639395455614 3.6518407712253552e-25)
(-0.16189994386329642 0.0068015754400545161 0)
(-0.16476260480971766 0.0066702219317270398 0)
(-0.16740942794731112 0.0064839486137677257 0)
(-0.16980420264138016 0.0062340646326891642 4.6365644182852877e-25)
(-0.17190454868879831 0.0059080102758822407 5.5406599493763365e-25)
(-0.17365933712602735 0.0054881410781163296 0)
(-0.17500558445450465 0.0049497923456908654 0)
(-0.17586369336820273 0.0042580228330390858 0)
(-0.17612848118237157 0.0033635911753964686 1.9676057142423925e-24)
(-0.17565623923609083 0.0022014517237834543 2.5097951348595496e-24)
(-0.17426009995495356 0.00069318112081349264 -3.2117976618876325e-24)
(-0.17174223555870952 -0.0012549142457380649 -4.0961718764792061e-24)
(-0.16786437365341347 -0.0037178915729329772 5.1383428923528883e-24)
(-0.16245074614453059 -0.0067921555859313514 6.3369904379988457e-24)
(-0.15515620829279722 -0.010557848352239262 -2.5659457833454172e-24)
(-0.14553942897313213 -0.015073019855514179 -3.0630540117853987e-24)
(-0.13310788427149944 -0.020334290854825091 0)
(-0.1174047546729297 -0.026209556078867144 1.2153095543064976e-23)
(-0.098196910882870331 -0.032316657484644101 1.3136455162787513e-23)
(-0.075806512888052999 -0.037760932061334726 -1.3134587095257436e-23)
(-0.051491962878997002 -0.040561577353021225 -1.1633889460570319e-23)
(-0.027413513212197205 -0.036570925691454231 0)
(-0.0047052270005599507 -0.017415801446530751 5.9999470775410684e-24)
(0.009250301344790041 0.013516415334136582 4.4526987970837575e-24)
(-0.0080174058711062809 0.033282256570000598 -6.9879538928628408e-24)
(-0.013577973339850882 0.0079472061238202787 -1.1851219770824608e-24)
(-0.016100126370346128 -0.0026119076400973945 0)
(-0.016313400600512774 -0.0046617684009911137 -1.3019963632048032e-25)
(-0.015676517353135782 -0.0043013585601330675 -1.1005470619599233e-25)
(-0.014794298493116372 -0.0034868820290159808 0)
(-0.013910917753385132 -0.0027374064002303592 -5.1988053698564517e-26)
(-0.013104794619940891 -0.0021453398597170233 -3.5533189977605405e-26)
(-0.012395209615335542 -0.0016953115425333272 -2.4748566630306371e-26)
(-0.01178052326379371 -0.0013544525060789063 -1.7572170155281358e-26)
(-0.011251964906664157 -0.0010939494138985798 0)
(-0.010798922008525409 -0.00089217041206836138 0)
(-0.010411050453170275 -0.00073357402926306752 6.8564955437979803e-27)
(-0.0100790604373067 -0.00060709557570909865 5.0895099798007335e-27)
(-0.0097949264693760058 -0.00050482144273005923 0)
(-0.0095518451093593252 -0.00042103686692998875 0)
(-0.0093441044536303926 -0.00035156482763461211 0)
(-0.0091669280380745621 -0.0002933094396579213 1.3857408020435584e-27)
(-0.009016323934588533 -0.00024394656954893022 8.9587064673662132e-28)
(-0.0088889530823316326 -0.00020170763518630205 0)
(-0.0087820141787308941 -0.00016522830348317033 0)
(-0.0086931496669587806 -0.00013344723083174353 0)
(-0.0086203685954557227 -0.00010552775550773849 -2.2768996796398788e-41)
(-0.0085619845411643112 -8.0797725325056194e-05 1.1991177583079597e-41)
(-0.0085165634458838988 -5.8707647812917281e-05 -7.5001555080152512e-28)
(-0.0084828800926923329 -3.8795062421357637e-05 -9.2286817574569038e-28)
(-0.0084599031002769408 -2.0637716641053485e-05 0)
(-0.0084467139309044401 -3.7991248110347704e-06 -4.0107601601171244e-41)
(-0.0084422764094094545 1.18964127864088e-05 3.4677551870541756e-41)
(-0.0084465645111141529 2.6403825908073592e-05 0)
(-0.008458892997916129 3.9818296337827971e-05 0)
(-0.008478767823798309 5.2291695741502257e-05 0)
(-0.0085057492354398967 6.3971800301383325e-05 -3.9246899880523459e-42)
(-0.0085394519139400226 7.4995992105375916e-05 3.7772713045469845e-42)
(-0.0085795505184019759 8.5486150087577675e-05 -2.2038856497030904e-27)
(-0.0086257752497836179 9.5547463682327152e-05 -2.3161369919134045e-27)
(-0.0086779036932589457 0.00010527041993990635 0)
(-0.0087357563568397807 0.00011473353839903754 0)
(-0.0087991945498829445 0.00012400550970234384 5.3201917629640117e-27)
(-0.0088681162117538129 0.00013314686235424775 2.7801293022636123e-27)
(-0.0089424507670488942 0.0001422118714866537 -2.9047178616742628e-27)
(-0.0090221560130406345 0.00015125050636732968 0)
(-0.0091072167925158615 0.00016030944315843597 0)
(-0.0091976437829268363 0.00016943253960698126 -3.3217747277469316e-27)
(-0.0092934714699172485 0.00017866110661396003 -3.4794685499939513e-27)
(-0.009394756985214173 0.0001880347709650213 0)
(-0.0095015799072205292 0.00019759241689035854 0)
(-0.0096140422233533043 0.00020737252392977028 0)
(-0.0097322681413593605 0.00021741356378501836 -4.2230994424164005e-27)
(-0.0098564035697348788 0.00022775412989788963 -8.877271715027104e-27)
(-0.0099866165695199818 0.0002384334366756453 -4.6662492608716641e-27)
(-0.010123098058272054 0.00024949185355491134 0)
(-0.010266062372541211 0.00026097080771836367 5.1604206436072629e-27)
(-0.010415748314457745 0.00027291325598314555 5.4267206388288783e-27)
(-0.010572420149281041 0.00028536407028235912 0)
(-0.01073636905036072 0.00029837023904108451 0)
(-0.010907914351027316 0.00031198119100499401 6.3247447006192827e-27)
(-0.011087405067714983 0.00032624918150570952 6.6615502734303006e-27)
(-0.011275222978956735 0.00034123098124340184 -7.016818116983742e-27)
(-0.01147178508455945 0.00035698901088133299 -7.396989313607741e-27)
(-0.011677544986561894 0.00037359066137863137 0)
(-0.011892994711230859 0.00039110808436425845 0)
(-0.012118668369659538 0.0004096191536475778 -8.7251011741628242e-27)
(-0.012355147844401051 0.00042920935547209447 -9.227641574230053e-27)
(-0.012603066905036601 0.00044997228122237398 -1.0849909192841591e-40)
(-0.012863113717941818 0.00047200774642380236 1.0366571158029104e-26)
(-0.013136035800790346 0.00049542202438225503 1.1001021333393217e-26)
(-0.013422647829038372 0.00052033128860883981 0)
(-0.013723840343899642 0.00054686494142751633 -1.2372634332892329e-26)
(-0.014040586911007593 0.00057516690045582525 1.9979557409432659e-39)
(-0.014373949856059155 0.00060539467933556749 1.3999122997129354e-26)
(-0.014725088677453868 0.00063771972324270045 0)
(-0.015095272512626375 0.00067233163150926445 0)
(-0.015485894493990788 0.00070944299637495749 -1.6923745665844514e-26)
(-0.015898486469294461 0.0007492921562912855 -1.802196745520147e-26)
(-0.016334734414157611 0.00079214483079820361 0)
(-0.016796496943816189 0.00083829630442507628 0)
(-0.017285828891740001 0.00088807607655577811 0)
(-0.017805009592578483 0.00094185499822901702 -2.3441849133521117e-26)
(-0.018356575055447837 0.0010000524241679891 -2.5112548450769933e-26)
(-0.018943354273098168 0.0010631430380478599 0)
(-0.019568512210412031 0.0011316661609955582 0)
(-0.020235604460027163 0.0012062402292807291 0)
(-0.020948647954516116 0.0012875841603568025 0)
(-0.021712209865778032 0.0013765453534428796 0)
(-0.022531517163034968 0.0014741323578208816 0)
(-0.023412594859060411 0.0015815550901210082 0)
(-0.024362451909303494 0.001700284380981649 -4.56206065221345e-26)
(-0.025389344773977203 0.0018321460734305219 -4.9525560933791688e-26)
(-0.026503155546389691 0.0019794636344090556 0)
(-0.027715930918176267 0.0021452636366256429 -5.8726650070037114e-26)
(-0.029042645585050837 0.00233355848962404 -6.4360249258938177e-26)
(-0.030502257195337432 0.0025497028660449754 -2.1276778753669692e-25)
(-0.032119042282882093 0.0028007438921497808 -2.357529055704543e-25)
(-0.033923936726509535 0.0030954903333663083 0)
(-0.035955042620536122 0.0034436751332071924 0)
(-0.038255607780369155 0.0038531574089320638 0)
(-0.040866994870979362 0.0043239652678753815 0)
(-0.043814447186551919 0.0048388976533106408 0)
(-0.047086240408703593 0.005353118274042756 0)
(-0.05061222604446429 0.0057888933576254334 0)
(-0.054252538779217777 0.0060428811084827132 0)
(-0.057805938784182734 0.0060084518207232495 1.9369377739340765e-25)
(-0.061038506532219657 0.0056061160787926794 1.8556926562719094e-25)
(-0.063723465837827842 0.0048090481588453811 0)
(-0.065679047744226046 0.003653262523675223 0)
(-0.066793509632567721 0.002230194572011119 1.5021809805073378e-25)