/*--------------------------------*- C++ -*----------------------------------*\
  =========                 |
  \\      /  F ield         | OpenFOAM: The Open Source CFD Toolbox
   \\    /   O peration     | Website:  https://openfoam.org
    \\  /    A nd           | Version:  12
     \\/     M anipulation  |
\*---------------------------------------------------------------------------*/
FoamFile
{
    format      ascii;
    class       volVectorField;
    location    "10";
    object      U;
}
// * * * * * * * * * * * * * * * * * * * * * * * * * * * * * * * * * * * * * //

dimensions      [0 1 -1 0 0 0 0];

internalField   nonuniform List<vector> 
40000
(
(-0.0119557386676 0.0083803905999 0)
(-0.0170974026125 -0.00020304016203 0)
(-0.0149835286824 -0.00174673288132 0)
(-0.0118866484501 -0.00151474778825 0)
(-0.00928135471015 -0.00103943759802 0)
(-0.00742187062308 -0.000670768558371 0)
(-0.00613185900912 -0.000430032735305 0)
(-0.0052259237855 -0.00027994879063 0)
(-0.00457366110333 -0.000187004286334 0)
(-0.00409200060423 -0.000128709106108 0)
(-0.00372781658116 -9.12512181121e-05 0)
(-0.00344669857905 -6.64603432412e-05 0)
(-0.00322592164983 -4.95294212045e-05 0)
(-0.00305012373552 -3.7599602042e-05 0)
(-0.00290866289605 -2.89389766319e-05 0)
(-0.0027939878082 -2.24749247869e-05 0)
(-0.00270061669944 -1.75271861302e-05 0)
(-0.00262448576165 -1.3653042175e-05 0)
(-0.00256252489743 -1.0556275548e-05 0)
(-0.00251237555272 -8.03352668117e-06 0)
(-0.00247219836185 -5.94253353984e-06 0)
(-0.00244053955318 -4.18212045074e-06 0)
(-0.00241623724821 -2.67813277035e-06 0)
(-0.00239835610306 -1.37300994941e-06 0)
(-0.00238614447933 -2.16979838284e-07 0)
(-0.00237900297117 8.45590413751e-07 0)
(-0.00237640475412 1.86633480872e-06 0)
(-0.00237814328868 2.7338999843e-06 0)
(-0.00238397405692 3.4628616103e-06 0)
(-0.00239334704883 4.13346578041e-06 0)
(-0.00240592505213 4.78201423225e-06 0)
(-0.00242149055218 5.39492230872e-06 0)
(-0.00243986747104 5.97348938629e-06 0)
(-0.00246089824614 6.52484156864e-06 0)
(-0.00248445188021 7.05653754931e-06 0)
(-0.00251042421089 7.57492827435e-06 0)
(-0.00253873498531 8.08495870704e-06 0)
(-0.00256932418581 8.59043875796e-06 0)
(-0.00260214922671 9.09457201072e-06 0)
(-0.00263718281125 9.60036651596e-06 0)
(-0.00267441137862 1.01107902423e-05 0)
(-0.00271383390992 1.06286759457e-05 0)
(-0.00275546104121 1.11566508217e-05 0)
(-0.00279931446261 1.16972247063e-05 0)
(-0.00284542641336 1.22528898383e-05 0)
(-0.00289383944604 1.28261612182e-05 0)
(-0.00294460610656 1.34195044401e-05 0)
(-0.00299778879674 1.4035328885e-05 0)
(-0.00305345972461 1.46760453411e-05 0)
(-0.0031117008687 1.53441004556e-05 0)
(-0.00317260415637 1.60420254103e-05 0)
(-0.00323627148919 1.67724067743e-05 0)
(-0.00330281499203 1.75379101662e-05 0)
(-0.00337235726206 1.83412903592e-05 0)
(-0.00344503161975 1.91853829136e-05 0)
(-0.00352098267588 2.00731634166e-05 0)
(-0.00360036684672 2.10077812215e-05 0)
(-0.0036833532949 2.19926479062e-05 0)
(-0.00377012511508 2.30315568849e-05 0)
(-0.00386088057987 2.41287310243e-05 0)
(-0.00395583482274 2.52889023347e-05 0)
(-0.00405522137714 2.65173517024e-05 0)
(-0.00415929384624 2.7819892264e-05 0)
(-0.00426832767484 2.92028268286e-05 0)
(-0.00438262148841 3.06727853606e-05 0)
(-0.00450249863575 3.2236650639e-05 0)
(-0.0046283088157 3.3901664639e-05 0)
(-0.00476042984378 3.56755339708e-05 0)
(-0.00489927009951 3.75664446893e-05 0)
(-0.00504527106776 3.95830603144e-05 0)
(-0.00519891034857 4.17347258901e-05 0)
(-0.00536070581778 4.40320317403e-05 0)
(-0.00553122030511 4.64871396804e-05 0)
(-0.00571106667815 4.91135246981e-05 0)
(-0.00590091315493 5.1925739008e-05 0)
(-0.00610148867807 5.49396972478e-05 0)
(-0.00631358939071 5.81731536453e-05 0)
(-0.00653808612061 6.16456399958e-05 0)
(-0.00677593187641 6.53777451446e-05 0)
(-0.00702816997333 6.93907844775e-05 0)
(-0.0072959437525 7.37077211456e-05 0)
(-0.0075805084806 7.83544547792e-05 0)
(-0.00788324615347 8.33603020655e-05 0)
(-0.00820568302159 8.87578388053e-05 0)
(-0.00854951014818 9.45831460408e-05 0)
(-0.0089166093809 0.000100877178414 0)
(-0.00930908684613 0.000107687692469 0)
(-0.00972931497365 0.000115070520668 0)
(-0.0101799852663 0.000123090246485 0)
(-0.0106641757131 0.000131821643535 0)
(-0.0111854385059 0.000141352046126 0)
(-0.0117479159896 0.00015178216105 0)
(-0.012356491081 0.00016322066224 0)
(-0.0130169693229 0.000175765706972 0)
(-0.0137362707494 0.000189463953584 0)
(-0.0145225705491 0.000204238107991 0)
(-0.015385256222 0.000219782708384 0)
(-0.0163344612677 0.000235451768545 0)
(-0.017379797438 0.000250199392991 0)
(-0.0185277909037 0.000262644344983 0)
(-0.0197775817995 0.000271240030431 0)
(-0.0211149190697 0.000274339940004 0)
(-0.0225055763158 0.000269872990698 0)
(-0.0238908211759 0.00025473213523 0)
(-0.0251885251675 0.000224736362744 0)
(-0.0263026520232 0.000176133630758 0)
(-0.027140264184 0.000108258764373 0)
(-0.0276280061673 2.645063644e-05 0)
(-0.0277214620073 -5.37106243512e-05 0)
(-0.0274512345902 -0.000116257437906 0)
(-0.026794047 -0.000189883221794 0)
(-0.0257562700076 -0.000280932270075 0)
(-0.0243775613958 -0.000381053190651 0)
(-0.0227209897824 -0.000477229623088 0)
(-0.0208669384832 -0.000556826737034 0)
(-0.0189043869231 -0.000609993235275 0)
(-0.016923808163 -0.000630360158573 0)
(-0.0150126107756 -0.000614786751718 0)
(-0.0132523226798 -0.000562774485707 0)
(-0.0117161255945 -0.0004758533317 0)
(-0.010465865647 -0.00035725315965 0)
(-0.00954811512952 -0.000212011348941 0)
(-0.00898773247001 -4.72316731078e-05 0)
(-0.00877302687166 0.000121605159745 0)
(-0.0089379801342 0.000252196561856 0)
(-0.00951303056068 0.000340474683726 0)
(-0.01041783062 0.000376288605748 0)
(-0.0115478967812 0.000355103407423 0)
(-0.0127912820139 0.000275060812605 0)
(-0.0140603098263 0.000143103415191 0)
(-0.0153074028669 -1.61203943541e-05 0)
(-0.0165290321425 -0.000166027507558 0)
(-0.0177610753994 -0.000269063670935 0)
(-0.0190593000902 -0.000299666736403 0)
(-0.0204729905007 -0.000253647853344 0)
(-0.0220228016092 -0.000148812868692 0)
(-0.0236905966834 -1.66006458525e-05 0)
(-0.0254238605098 0.000110439240852 0)
(-0.0271509941251 0.000208610576145 0)
(-0.0287994671349 0.000266989876148 0)
(-0.0303095932073 0.000285884069846 0)
(-0.0316410296377 0.000272480920279 0)
(-0.032773242462 0.000236412644353 0)
(-0.0337027783088 0.000186826253273 0)
(-0.0344395763339 0.000131124680745 0)
(-0.0350034337729 7.48303299185e-05 0)
(-0.0354210442141 2.19728007533e-05 0)
(-0.0357237005601 -2.44308839576e-05 0)
(-0.0359455677065 -6.21488858164e-05 0)
(-0.0361224884982 -8.99100550659e-05 0)
(-0.0362915538954 -0.000107532877574 0)
(-0.0364908266916 -0.000114677984765 0)
(-0.0367569676819 -0.000108812794378 0)
(-0.0371243911048 -8.78134271121e-05 0)
(-0.0376264845236 -5.08031009713e-05 0)
(-0.0382948488575 2.60028340642e-06 0)
(-0.0391582154398 7.26298538366e-05 0)
(-0.0402419557709 0.000159364824112 0)
(-0.0415677234571 0.000262594315668 0)
(-0.0431530974682 0.000381674013953 0)
(-0.0450112365595 0.000515430370165 0)
(-0.0471505996586 0.000662141248467 0)
(-0.0495747900058 0.00081959341893 0)
(-0.0522825581784 0.00098519244533 0)
(-0.055267967283 0.00115610015545 0)
(-0.058520706383 0.00132938778875 0)
(-0.0620265336812 0.00150220286081 0)
(-0.0657678305868 0.00167193544316 0)
(-0.0697242384821 0.0018363577764 0)
(-0.0738733264684 0.00199370882067 0)
(-0.0781912277677 0.00214271226287 0)
(-0.082653190782 0.00228253375814 0)
(-0.0872340018032 0.00241270097361 0)
(-0.091908216988 0.00253301766693 0)
(-0.0966501797351 0.00264341035829 0)
(-0.10143380871 0.00274372932609 0)
(-0.106232104494 0.00283353484233 0)
(-0.111016333537 0.00291185661312 0)
(-0.115754826051 0.00297690264559 0)
(-0.120411301318 0.00302568846858 0)
(-0.124942652396 0.00305357373768 0)
(-0.129296100294 0.00305364994677 0)
(-0.133405375775 0.00301575624757 0)
(-0.13718511283 0.00292478873914 0)
(-0.140522279458 0.00275851346683 0)
(-0.143263314299 0.00248610298247 0)
(-0.145196881709 0.0020654951049 0)
(-0.146047777624 0.00142687678751 0)
(-0.145539301197 0.000457225753873 0)
(-0.143135844011 -0.000845590624558 0)
(-0.13834125614 -0.00248647610694 0)
(-0.130618305325 -0.00448638333675 0)
(-0.119397809938 -0.00685342142765 0)
(-0.104157822335 -0.00955251104446 0)
(-0.0846456100854 -0.0124559806879 0)
(-0.0613153182973 -0.0152206496401 0)
(-0.0357902083368 -0.0169717832412 0)
(-0.0103633430506 -0.0155243732029 0)
(0.0134035296633 -0.00175572099623 0)
(0.0106986044989 0.00668571268295 0)
(-0.0100588561037 0.0214495451075 0)
(-0.0161504913596 0.00244738191463 0)
(-0.0172066626457 -0.00354958510725 0)
(-0.0161178332189 -0.00398719142787 0)
(-0.0144912918222 -0.00321731731098 0)
(-0.0129499572931 -0.00239141832027 0)
(-0.0116542851954 -0.00174927958007 0)
(-0.0106001105286 -0.00128951832166 0)
(-0.00974779279326 -0.000966396242147 0)
(-0.00905668511263 -0.000737839172577 0)
(-0.00849302214087 -0.000573425382384 0)
(-0.00803030779897 -0.000452670487428 0)
(-0.00764811230785 -0.000362042058216 0)
(-0.0073307343794 -0.000292581841757 0)
(-0.00706606724586 -0.000238290464223 0)
(-0.00684471443096 -0.000195084722226 0)
(-0.00665932334803 -0.000160134586015 0)
(-0.00650409012255 -0.000131440484206 0)
(-0.00637439185863 -0.000107562292775 0)
(-0.0062665129574 -8.74442152812e-05 0)
(-0.00617744122249 -7.02997840588e-05 0)
(-0.00610471594393 -5.55338849484e-05 0)
(-0.00604631405896 -4.26874046707e-05 0)
(-0.00600056272589 -3.13967891757e-05 0)
(-0.0059660704306 -2.13626817753e-05 0)
(-0.00594168737041 -1.23210105386e-05 0)
(-0.00592650963174 -4.03232807972e-06 0)
(-0.00591951684286 3.61417625397e-06 0)
(-0.00592042341667 1.06448933981e-05 0)
(-0.00592884613136 1.70690101416e-05 0)
(-0.00594404448824 2.29890660414e-05 0)
(-0.00596550575747 2.84804569137e-05 0)
(-0.00599279551204 3.36156240235e-05 0)
(-0.00602555815879 3.84608353326e-05 0)
(-0.00606350187073 4.30743106036e-05 0)
(-0.0061063897368 4.75056787739e-05 0)
(-0.00615403231064 5.17969476192e-05 0)
(-0.00620628117374 5.59838332311e-05 0)
(-0.00626302378233 6.00972742467e-05 0)
(-0.00632417904936 6.41646977903e-05 0)
(-0.00638969375706 6.82109222409e-05 0)
(-0.00645953974466 7.22586309852e-05 0)
(-0.00653371174121 7.63287818109e-05 0)
(-0.0066122259139 8.04411663188e-05 0)
(-0.00669511850952 8.46147281875e-05 0)
(-0.00678244500154 8.88678480141e-05 0)
(-0.00687427940919 9.32184287603e-05 0)
(-0.00697071397844 9.76840740113e-05 0)
(-0.00707185920229 0.000102282391847 0)
(-0.0071778436754 0.000107031110286 0)
(-0.0072888144559 0.000111948328268 0)
(-0.00740493733104 0.000117052548012 0)
(-0.00752639736259 0.000122362748233 0)
(-0.00765339973058 0.000127898566665 0)
(-0.00778617034044 0.000133680312981 0)
(-0.00792495703834 0.000139729280215 0)
(-0.0080700307445 0.000146067984124 0)
(-0.00822168682324 0.000152720476318 0)
(-0.00838024692798 0.000159712878396 0)
(-0.00854606056062 0.000167073620107 0)
(-0.0087195073629 0.000174833826887 0)
(-0.00890099952763 0.000183027603319 0)
(-0.0090909842015 0.000191691964139 0)
(-0.00928994668938 0.00020086696759 0)
(-0.00949841342191 0.000210595625935 0)
(-0.00971695561153 0.000220923945762 0)
(-0.00994619380748 0.000231901490075 0)
(-0.0101868020385 0.000243581711904 0)
(-0.0104395126983 0.000256022369742 0)
(-0.0107051223539 0.000269286396031 0)
(-0.0109844982422 0.000283443016533 0)
(-0.0112785860963 0.000298569229365 0)
(-0.0115884178801 0.000314750783888 0)
(-0.0119151200224 0.000332082417597 0)
(-0.0122599246512 0.000350668913755 0)
(-0.0126241828962 0.000370627000939 0)
(-0.0130093788463 0.000392086774336 0)
(-0.0134171443506 0.000415192303786 0)
(-0.0138492759485 0.00044010212172 0)
(-0.0143077569042 0.000466991324888 0)
(-0.0147947844609 0.000496056066495 0)
(-0.0153127995047 0.00052751845359 0)
(-0.0158645203549 0.000561630807243 0)
(-0.0164529856231 0.000598681353266 0)
(-0.0170816088216 0.000639003155643 0)
(-0.0177542465052 0.000682986223534 0)
(-0.018475282716 0.000731092213931 0)
(-0.0192497365636 0.000783872169444 0)
(-0.020083408224 0.000841990970231 0)
(-0.0209830839467 0.000906264818976 0)
(-0.02195682357 0.000977715586723 0)
(-0.0230143638431 0.00105764120049 0)
(-0.0241676822571 0.00114769751868 0)
(-0.0254317589812 0.00124997623287 0)
(-0.0268255120819 0.00136703546253 0)
(-0.0283726945005 0.0015017847224 0)
(-0.0301021429092 0.001657027331 0)
(-0.0320461372824 0.00183432704289 0)
(-0.0342350100322 0.00203177249907 0)
(-0.0366862605952 0.00224040056606 0)
(-0.0393883335248 0.00243989620193 0)
(-0.042283217435 0.002595792198 0)
(-0.0452560994413 0.00266169265301 0)
(-0.0481403709501 0.00258895640579 0)
(-0.0507401684142 0.00234200644635 0)
(-0.052863807906 0.00191268140254 0)
(-0.0543548784688 0.00132633064323 0)
(-0.0551074646695 0.000636876450307 0)
(-0.0550793400646 -9.17396038426e-05 0)
(-0.0543020302289 -0.000824588975237 0)
(-0.0528433925028 -0.00154334887903 0)
(-0.0508385877405 -0.00219690349105 0)
(-0.0484474256155 -0.00273592763069 0)
(-0.0458258925061 -0.00313054230912 0)
(-0.0431109075643 -0.00336983237646 0)
(-0.0404172221231 -0.00345552249844 0)
(-0.0378405087734 -0.00339573030447 0)
(-0.0354621363316 -0.00320117459905 0)
(-0.0333529517143 -0.00288456995734 0)
(-0.0315751601563 -0.00246339409059 0)
(-0.0301827059864 -0.00196474968339 0)
(-0.0292223801865 -0.00142382393495 0)
(-0.0287451172421 -0.000858532623967 0)
(-0.0288537728797 -0.000241453376097 0)
(-0.0297343863708 0.000423527077048 0)
(-0.031315465428 0.00107546277093 0)
(-0.0335673922271 0.00164510412097 0)
(-0.0364255154304 0.00208847189348 0)
(-0.0398104384992 0.00239383280783 0)
(-0.0436279996445 0.00258843510061 0)
(-0.0477810508202 0.00272937929568 0)
(-0.052169790111 0.00287409746636 0)
(-0.0566847695332 0.00305254702347 0)
(-0.0612098419305 0.00325588243811 0)
(-0.0656347365763 0.00344544058582 0)
(-0.0698687450996 0.00357414590238 0)
(-0.0738465761292 0.00360626555181 0)
(-0.0775252693616 0.00352663769623 0)
(-0.0808772202379 0.00334013467574 0)
(-0.0838847358197 0.00306600162158 0)
(-0.0865384199299 0.00273093447636 0)
(-0.088838021172 0.00236306632602 0)
(-0.0907935439175 0.00198809209625 0)
(-0.0924255974109 0.00162766038899 0)
(-0.0937647664405 0.00129901510721 0)
(-0.094850030122 0.00101514969988 0)
(-0.0957265335748 0.000785243776968 0)
(-0.0964432023918 0.00061522563613 0)
(-0.0970505502983 0.000508318930318 0)
(-0.0975986787828 0.000465499906269 0)
(-0.0981353344653 0.00048602273209 0)
(-0.0987048252378 0.000568178729404 0)
(-0.0993494744132 0.000709713456478 0)
(-0.100107770435 0.000906931944778 0)
(-0.101012238422 0.00115514016824 0)
(-0.102090547578 0.0014489342367 0)
(-0.103365214863 0.00178224359746 0)
(-0.104853258178 0.00214840139494 0)
(-0.106566006465 0.00254022992892 0)
(-0.108509077094 0.0029501519029 0)
(-0.110682520889 0.00337035207831 0)
(-0.113081094014 0.00379297998094 0)
(-0.115694608445 0.00421036150912 0)
(-0.118508345106 0.00461519529606 0)
(-0.121503549114 0.00500073721193 0)
(-0.124658015493 0.00536097474907 0)
(-0.127946734762 0.00569077659344 0)
(-0.131342554941 0.00598598762522 0)
(-0.134816829036 0.00624345582098 0)
(-0.138340027852 0.00646098697947 0)
(-0.141882290144 0.0066372316461 0)
(-0.14541386556 0.00677150680665 0)
(-0.148905399501 0.00686355697048 0)
(-0.152328074249 0.00691326156228 0)
(-0.155653559309 0.00692028957178 0)
(-0.158853707681 0.00688370749585 0)
(-0.161899988273 0.00680152557961 0)
(-0.164762633208 0.006670180123 0)
(-0.167409453623 0.00648392327184 0)
(-0.169804225029 0.00623406471271 0)
(-0.171904567528 0.00590803626018 0)
(-0.17365936636 0.00548818037286 0)
(-0.175005645237 0.0049498271118 0)
(-0.17586379594 0.00425804422898 0)
(-0.176128616501 0.00336360407156 0)
(-0.175656390255 0.00220146297687 0)
(-0.174260259061 0.000693186630459 0)
(-0.171742401977 -0.00125492800927 0)
(-0.1678645352 -0.00371793050687 0)
(-0.162450874486 -0.00679221388608 0)
(-0.155156271538 -0.0105579192001 0)
(-0.145539415464 -0.0150731101393 0)
(-0.133107793375 -0.020334412612 0)
(-0.117404572412 -0.0262097009095 0)
(-0.0981966220207 -0.0323167948284 0)
(-0.075806144144 -0.0377610330205 0)
(-0.0514915819282 -0.040561614992 0)
(-0.0274131655798 -0.0365708380673 0)
(-0.00470483291843 -0.0174153463974 0)
(0.00925028872813 0.0135165283792 0)
(-0.00801747802081 0.0332822900757 0)
(-0.0135779645131 0.00794722575425 0)
(-0.0161001275456 -0.00261190507916 0)
(-0.016313407439 -0.00466176614986 0)
(-0.0156765232467 -0.0043013556348 0)
(-0.0147943029336 -0.00348687910677 0)
(-0.0139109218403 -0.00273740278794 0)
(-0.0131047988737 -0.00214533515811 0)
(-0.0123952136976 -0.00169530647723 0)
(-0.0117805262552 -0.00135444869494 0)
(-0.0112519669243 -0.00109394752882 0)
(-0.0107989234489 -0.000892170093576 0)
(-0.01041105166 -0.000733574784068 0)
(-0.0100790619922 -0.000607096572781 0)
(-0.00979492773342 -0.00050482291459 0)
(-0.00955184592303 -0.000421039051986 0)
(-0.0093441046267 -0.000351567201487 0)
(-0.00916692699981 -0.000293312473204 0)
(-0.00901632155009 -0.000243950407297 0)
(-0.00888894893096 -0.000201711850096 0)
(-0.0087820081226 -0.000165233786645 0)
(-0.00869314188017 -0.000133454250932 0)
(-0.00862035986638 -0.000105535491731 0)
(-0.00856197599442 -8.08060883445e-05 0)
(-0.00851655525713 -5.87166616895e-05 0)
(-0.00848287296648 -3.88041076515e-05 0)
(-0.00845989868913 -2.0646430817e-05 0)
(-0.00844671234731 -3.80740850895e-06 0)
(-0.00844227715719 1.18892089843e-05 0)
(-0.00844656852535 2.63979980292e-05 0)
(-0.00845890106038 3.98134853144e-05 0)
(-0.00847877851545 5.22877692607e-05 0)
(-0.00850576132589 6.39688904585e-05 0)
(-0.00853946594629 7.49939545095e-05 0)
(-0.0085795668468 8.54845779443e-05 0)
(-0.00862579299491 9.55463177251e-05 0)
(-0.00867792249595 0.000105270134037 0)
(-0.00873577735648 0.000114734431298 0)
(-0.008799218973 0.000124007514653 0)
(-0.00886814416437 0.000133149920472 0)
(-0.00894248184321 0.000142216210509 0)
(-0.00902219024893 0.000151256317637 0)
(-0.00910725455912 0.000160316431486 0)
(-0.00919768528039 0.000169439996269 0)
(-0.00929351683275 0.000178668435414 0)
(-0.00939480663627 0.000188041755534 0)
(-0.00950163444983 0.000197599059591 0)
(-0.0096141019609 0.000207378848686 0)
(-0.00973233285709 0.000217419619932 0)
(-0.00985647277024 0.00022776016277 0)
(-0.00998668967992 0.000238439865623 0)
(-0.0101231743984 0.000249499034261 0)
(-0.010266141209 0.000260978968497 0)
(-0.010415828955 0.000272922437551 0)
(-0.0105725019512 0.00028537394495 0)
(-0.0107364514003 0.000298380144686 0)
(-0.0109079969479 0.000311990551175 0)
(-0.0110874883033 0.000326257985807 0)
(-0.0112753074068 0.000341239439663 0)
(-0.0114718704051 0.000356996701912 0)
(-0.0116776301048 0.000373596691911 0)
(-0.0118930789753 0.000391112186092 0)
(-0.0121187522798 0.000409622113551 0)
(-0.0123552319427 0.000429211893261 0)
(-0.012603150573 0.000449973941877 0)
(-0.0128631959917 0.000472007850983 0)
(-0.0131361170685 0.000495421501118 0)
(-0.0134227300295 0.000520332701374 0)
(-0.0137239250978 0.000546870315799 0)
(-0.0140406736505 0.000575175609725 0)
(-0.0143740364573 0.000605404087878 0)
(-0.0147251741212 0.000637728148653 0)
(-0.015095358596 0.000672340209785 0)
(-0.01548598465 0.000709454347192 0)
(-0.0158985831365 0.000749307424351 0)
(-0.0163348381678 0.000792162502306 0)
(-0.0167966082401 0.000838314198708 0)
(-0.0172859497897 0.000888093891245 0)
(-0.0178051426875 0.000941873876765 0)
(-0.01835672067 0.00100007220534 0)
(-0.0189435100208 0.00106316163128 0)
(-0.0195686765546 0.00113168286111 0)
(-0.0202357804944 0.00120625905766 0)
(-0.0209488424715 0.00128761216295 0)
(-0.0217124277478 0.00137658609843 0)
(-0.0225317568256 0.00147418131578 0)
(-0.0234128505162 0.00158160327297 0)
(-0.0243627216595 0.00170032774922 0)
(-0.02538963631 0.0018321910611 0)
(-0.026503482746 0.00197952296768 0)
(-0.0277163048965 0.00214534681961 0)
(-0.0290430707078 0.00233366661961 0)
(-0.0305027367233 0.00254983267508 0)
(-0.0321195870705 0.00280089629428 0)
(-0.033924567723 0.00309567492783 0)
(-0.0359557869641 0.00344390671495 0)
(-0.0382564950219 0.00385344763881 0)
(-0.0408680543267 0.00432431700038 0)
(-0.0438157038754 0.00483930417322 0)
(-0.0470877081662 0.00535356076608 0)
(-0.0506138939791 0.00578933475832 0)
(-0.0542543576221 0.00604326471861 0)
(-0.0578078254221 0.00600871113219 0)
(-0.0610403643582 0.00560619686424 0)
(-0.0637252033126 0.00480893053954 0)
(-0.0656805906218 0.0036529622616 0)
(-0.066794807763 0.00222975460176 0)
(-0.0670362451634 0.000664577131543 0)
(-0.0664637805567 -0.000917287884491 0)
(-0.0651788867947 -0.00240533419769 0)
(-0.0633905360541 -0.0036863940906 0)
(-0.0613035089503 -0.00469211699885 0)
(-0.0590861602018 -0.00539978588005 0)
(-0.0568673170674 -0.00581884124271 0)
(-0.0547424694347 -0.00597460322357 0)
(-0.0527850342454 -0.00589591697181 0)
(-0.0510570026207 -0.00560888535442 0)
(-0.0496173084244 -0.00513612661282 0)
(-0.0485285470303 -0.00449928062086 0)
(-0.0478628840953 -0.00371808048926 0)
(-0.047705979042 -0.00279319345209 0)
(-0.0481674060409 -0.00167644981384 0)
(-0.0494820048583 -0.000314675596111 0)
(-0.0518229836244 0.00123890373022 0)
(-0.0547783788187 0.00280121498409 0)
(-0.0582508220734 0.00422824584641 0)
(-0.0621832862334 0.00545206724014 0)
(-0.0665286054012 0.00644466621019 0)
(-0.0712330058991 0.00720789589621 0)
(-0.0762188327984 0.00776214648459 0)
(-0.0813831799286 0.00813515638292 0)
(-0.0866059412253 0.0083539066846 0)
(-0.0917630710267 0.00843915420361 0)
(-0.0967404614252 0.00840363302242 0)
(-0.101443159606 0.00825250468284 0)
(-0.105799492368 0.00798597550525 0)
(-0.109762052739 0.00760378894706 0)
(-0.113305378394 0.00711030391841 0)
(-0.116421756835 0.00651836940069 0)
(-0.119117106093 0.00585026908241 0)
(-0.121408023106 0.00513554970522 0)
(-0.123319829975 0.00440684059999 0)
(-0.124884984844 0.00369585101505 0)
(-0.126141849797 0.00303108208979 0)
(-0.127133627796 0.00243641734322 0)
(-0.127906879664 0.00193014573298 0)
(-0.128509633428 0.00152473905484 0)
(-0.128989500547 0.00122729044719 0)
(-0.1293921275 0.00104036516298 0)
(-0.129760014709 0.000963045970825 0)
(-0.130131640999 0.000991921703475 0)
(-0.130541105414 0.0011214609771 0)
(-0.131018476859 0.00134420082225 0)
(-0.131589693165 0.00165176023658 0)
(-0.132276011617 0.00203484180131 0)
(-0.133093868575 0.00248308207634 0)
(-0.134054845379 0.00298516778598 0)
(-0.135165668906 0.00352910977522 0)
(-0.136428250281 0.00410250545611 0)
(-0.137839801115 0.00469275927529 0)
(-0.139393065983 0.00528730245848 0)
(-0.141076684236 0.00587385363955 0)
(-0.142875657983 0.00644071245723 0)
(-0.144771890038 0.00697705010527 0)
(-0.146744764774 0.00747316092194 0)
(-0.148771764075 0.00792067127023 0)
(-0.150829105506 0.00831269743688 0)
(-0.152892372747 0.00864393360071 0)
(-0.154937110113 0.00891064781708 0)
(-0.156939357315 0.00911058024135 0)
(-0.158876100721 0.0092427446495 0)
(-0.160725621558 0.00930713523903 0)
(-0.162467722307 0.00930433433645 0)
(-0.164083805398 0.00923502272175 0)
(-0.165556796122 0.00909943803049 0)
(-0.166870913491 0.0088967708849 0)
(-0.168011256495 0.00862445673681 0)
(-0.168963191405 0.00827736926594 0)
(-0.169711534991 0.00784690135959 0)
(-0.170239449202 0.00731982730926 0)
(-0.170527008829 0.00667686290409 0)
(-0.170549752936 0.00589081124173 0)
(-0.170277452486 0.00492373181973 0)
(-0.169671351317 0.00372272838157 0)
(-0.168674596615 0.00221650128285 0)
(-0.167193269598 0.000317770882516 0)
(-0.165131994135 -0.00206402922384 0)
(-0.162510671908 -0.00500920765218 0)
(-0.159057188102 -0.0086663763893 0)
(-0.154508741303 -0.0132241115429 0)
(-0.148513936503 -0.0188535389991 0)
(-0.140655049929 -0.0256673743048 0)
(-0.130465739778 -0.0336638904018 0)
(-0.117495730294 -0.0426220220942 0)
(-0.101447133785 -0.051910369547 0)
(-0.0823901475923 -0.0601280985947 0)
(-0.0610061007379 -0.0644455316126 0)
(-0.0387350615618 -0.0595860683983 0)
(-0.0178400621674 -0.0371068477122 0)
(0.00562032194667 0.013580829007 0)
(-0.00657958919595 0.0429587283658 0)
(-0.011794635325 0.0130590609652 0)
(-0.0147447608428 -0.00101424175606 0)
(-0.0156016820432 -0.00459231497453 0)
(-0.0155551264607 -0.0047882851924 0)
(-0.0151548083331 -0.00414442215856 0)
(-0.014638735403 -0.00341506042437 0)
(-0.0141050550875 -0.00278436782809 0)
(-0.0135949701234 -0.00227462762359 0)
(-0.013125429832 -0.00186917016947 0)
(-0.0127020693775 -0.00154623737074 0)
(-0.0123250332433 -0.00128708063209 0)
(-0.0119918695157 -0.00107706414593 0)
(-0.0116990333578 -0.000905095336447 0)
(-0.0114426712852 -0.000762819644313 0)
(-0.0112190176419 -0.000643926882357 0)
(-0.0110245799155 -0.000543619519995 0)
(-0.0108562104847 -0.000458220070561 0)
(-0.0107111199645 -0.000384883439018 0)
(-0.010586861546 -0.000321386792418 0)
(-0.0104813019009 -0.000265976040197 0)
(-0.0103925869303 -0.000217253794582 0)
(-0.0103191070015 -0.000174096522634 0)
(-0.0102594641608 -0.000135591747501 0)
(-0.0102124415511 -0.00010098919431 0)
(-0.0101769743484 -6.96619509687e-05 0)
(-0.0101521292647 -4.10678722543e-05 0)
(-0.0101370962548 -1.47004262564e-05 0)
(-0.0101310154002 9.87444483312e-06 0)
(-0.0101333479797 3.28477658553e-05 0)
(-0.0101437272832 5.42883083103e-05 0)
(-0.0101617685335 7.43588063776e-05 0)
(-0.0101871337494 9.32506696839e-05 0)
(-0.0102195138405 0.000111150828034 0)
(-0.0102586363439 0.00012822987355 0)
(-0.0103042669891 0.000144639579051 0)
(-0.0103562093818 0.000160513866828 0)
(-0.0104143033111 0.000175970827498 0)
(-0.0104784226424 0.000191115177829 0)
(-0.0105484731918 0.000206040790193 0)
(-0.0106243907715 0.000220832852347 0)
(-0.0107061394821 0.000235569816221 0)
(-0.0107937100112 0.000250324741385 0)
(-0.0108871184335 0.000265166540243 0)
(-0.0109864052033 0.000280161076665 0)
(-0.0110916345058 0.000295372005556 0)
(-0.0112028938933 0.000310861680179 0)
(-0.0113202940096 0.000326691692971 0)
(-0.0114439687097 0.000342923601581 0)
(-0.0115740752198 0.000359619553418 0)
(-0.0117107946157 0.000376842677495 0)
(-0.0118543325056 0.000394657696233 0)
(-0.0120049198174 0.000413131237242 0)
(-0.0121628139759 0.000432332402953 0)
(-0.0123283001543 0.000452333461458 0)
(-0.0125016928113 0.000473210321836 0)
(-0.0126833374929 0.000495043525443 0)
(-0.0128736127304 0.000517919035789 0)
(-0.0130729322705 0.000541929123373 0)
(-0.0132817475606 0.000567173564357 0)
(-0.013500550492 0.000593760217582 0)
(-0.0137298765112 0.000621805837104 0)
(-0.0139703083707 0.000651437101923 0)
(-0.014222480492 0.000682791405134 0)
(-0.0144870837551 0.000716018109874 0)
(-0.0147648708875 0.00075127955614 0)
(-0.0150566624733 0.000788752166272 0)
(-0.0153633541676 0.000828628945431 0)
(-0.0156859251106 0.000871122265319 0)
(-0.0160254464703 0.00091646627945 0)
(-0.0163830907404 0.000964919465522 0)
(-0.0167601431359 0.00101676785356 0)
(-0.0171580153075 0.00107232995972 0)
(-0.0175782610251 0.00113196223453 0)
(-0.0180225929017 0.00119606290458 0)
(-0.0184929012372 0.00126507615385 0)
(-0.018991278167 0.00133949959691 0)
(-0.0195200473846 0.0014198945853 0)
(-0.0200817979973 0.00150689769581 0)
(-0.0206794235695 0.00160123307145 0)
(-0.0213161691649 0.00170372781424 0)
(-0.0219956901129 0.00181533419103 0)
(-0.0227221255139 0.00193715964494 0)
(-0.0235001878939 0.00207050348214 0)
(-0.0243352746383 0.00221690369059 0)
(-0.0252336138392 0.00237820320583 0)
(-0.0262024603482 0.00255664727451 0)
(-0.0272503631061 0.00275502664465 0)
(-0.0283875366233 0.00297688772104 0)
(-0.0296263848082 0.00322683989797 0)
(-0.0309822426448 0.00351099709299 0)
(-0.0324744038239 0.00383756811977 0)
(-0.0341274384802 0.00421750502425 0)
(-0.0359725880184 0.00466485235932 0)
(-0.0380485397093 0.00519593598225 0)
(-0.0404000772116 0.00582586057951 0)
(-0.0430722467379 0.00656045045419 0)
(-0.0460976666734 0.00738284701206 0)
(-0.0494767674175 0.00823753999755 0)
(-0.0531555477857 0.00901983902747 0)
(-0.0570105305271 0.00958138553436 0)
(-0.0608511799338 0.00975716068459 0)
(-0.0644435821188 0.00940757442365 0)
(-0.0675496090729 0.00845956470127 0)
(-0.0699699591025 0.0069309880597 0)
(-0.0715797074863 0.00493129404965 0)
(-0.0723487796662 0.00264056054813 0)
(-0.072346632897 0.000272702742939 0)
(-0.0717334570434 -0.00196629572934 0)
(-0.070707293948 -0.00390083922283 0)
(-0.0694787074712 -0.00542285692169 0)
(-0.0682031640117 -0.00650427798516 0)
(-0.0669909363092 -0.00716867239666 0)
(-0.0659193550841 -0.00746142155768 0)
(-0.0650469920656 -0.00742899054058 0)
(-0.0644264375271 -0.00710777798777 0)
(-0.0641141059873 -0.00652031547305 0)
(-0.064177241231 -0.00567502302618 0)
(-0.064696420786 -0.00456443149558 0)
(-0.065760614539 -0.00315896551504 0)
(-0.0674710740855 -0.00141754969639 0)
(-0.0700155501976 0.00063681685759 0)
(-0.0730958473023 0.00279947605676 0)
(-0.0763484009983 0.00484987038152 0)
(-0.0798978769031 0.0067395924005 0)
(-0.08375941006 0.00845687009117 0)
(-0.0879127442722 0.00996011643772 0)
(-0.0923130876209 0.0112041932833 0)
(-0.0968963084498 0.0121616375094 0)
(-0.101581409491 0.0128274957147 0)
(-0.106273652865 0.0132145046164 0)
(-0.110870229045 0.0133449154119 0)
(-0.115268664446 0.0132431616254 0)
(-0.119375984312 0.0129319194023 0)
(-0.123116256773 0.0124315888284 0)
(-0.126435449783 0.0117617772019 0)
(-0.129303533924 0.0109438111168 0)
(-0.131713829368 0.010003348647 0)
(-0.13368009296 0.00897176729293 0)
(-0.135232353551 0.00788577974471 0)
(-0.136412784 0.00678569465092 0)
(-0.137271682291 0.00571211176946 0)
(-0.137863039283 0.00470202213499 0)
(-0.138241175734 0.00378712519148 0)
(-0.13845910987 0.00299299365568 0)
(-0.13856701209 0.00233749894948 0)
(-0.13861037245 0.00183045789441 0)
(-0.138628619373 0.0014745284266 0)
(-0.138654444276 0.00126708142022 0)
(-0.138713735808 0.0012019656601 0)
(-0.138826234121 0.00127080839282 0)
(-0.139006659035 0.00146356518874 0)
(-0.139265753479 0.00176881917253 0)
(-0.139610987544 0.00217400749104 0)
(-0.140046832739 0.00266552408654 0)
(-0.140574829909 0.00322878564692 0)
(-0.141193638173 0.00384837371841 0)
(-0.141899106269 0.00450828885061 0)
(-0.142684379833 0.00519226895524 0)
(-0.143540058215 0.00588412016946 0)