/*--------------------------------*- C++ -*----------------------------------*\
  =========                 |
  \\      /  F ield         | OpenFOAM: The Open Source CFD Toolbox
   \\    /   O peration     | Website:  https://openfoam.org
    \\  /    A nd           | Version:  11
     \\/     M anipulation  |
\*---------------------------------------------------------------------------*/
FoamFile
{
    format      ascii;
    class       surfaceScalarField;
    location    "19";
    object      phi;
}
// * * * * * * * * * * * * * * * * * * * * * * * * * * * * * * * * * * * * * //

dimensions      [1 0 -1 0 0 0 0];

internalField   nonuniform List<scalar> 
79600
(
-8.81936e-06
8.81992e-06
-9.04482e-06
2.25708e-07
-7.22558e-06
-1.81933e-06
-5.76436e-06
-1.46142e-06
-4.96768e-06
-7.96909e-07
-4.70616e-06
-2.61756e-07
-4.82321e-06
1.16811e-07
-5.17445e-06
3.50987e-07
-5.66332e-06
4.88578e-07
-6.23297e-06
5.69284e-07
-6.84875e-06
6.15271e-07
-7.48284e-06
6.33369e-07
-8.1065e-06
6.22639e-07
-8.68759e-06
5.79655e-07
-9.19216e-06
5.02632e-07
-9.58903e-06
3.94343e-07
-9.85535e-06
2.63168e-07
-9.98114e-06
1.21995e-07
-9.97865e-06
-6.97257e-09
-9.8432e-06
-1.40751e-07
-9.5906e-06
-2.58631e-07
-9.23452e-06
-3.62677e-07
-8.7935e-06
-4.48025e-07
-8.28949e-06
-5.1119e-07
-7.74537e-06
-5.51322e-07
-7.18275e-06
-5.69695e-07
-6.6206e-06
-5.68975e-07
-6.07471e-06
-5.52408e-07
-5.55769e-06
-5.23194e-07
-5.07932e-06
-4.84166e-07
-4.64707e-06
-4.37668e-07
-4.26656e-06
-3.85569e-07
-3.94193e-06
-3.29328e-07
-3.67619e-06
-2.70097e-07
-3.4715e-06
-2.0874e-07
-3.32932e-06
-1.45923e-07
-3.25061e-06
-8.21816e-08
-3.23484e-06
-1.89763e-08
-3.28403e-06
4.61648e-08
-3.40342e-06
1.16529e-07
-3.5885e-06
1.8236e-07
-3.83307e-06
2.41985e-07
-4.12888e-06
2.93343e-07
-4.46585e-06
3.34614e-07
-4.83256e-06
3.64436e-07
-5.21711e-06
3.82362e-07
-5.60797e-06
3.88745e-07
-5.99451e-06
3.8446e-07
-6.36744e-06
3.70879e-07
-6.71927e-06
3.49792e-07
-7.04458e-06
3.2325e-07
-7.34005e-06
2.93382e-07
-7.60439e-06
2.62213e-07
-7.83809e-06
2.31511e-07
-8.04304e-06
2.02689e-07
-8.22212e-06
1.76747e-07
-8.37879e-06
1.54263e-07
-8.51671e-06
1.35437e-07
-8.63942e-06
1.20152e-07
-8.75011e-06
1.08071e-07
-8.85152e-06
9.87356e-08
-8.94587e-06
9.16397e-08
-9.03492e-06
8.62972e-08
-9.11998e-06
8.22872e-08
-9.20202e-06
7.92649e-08
-9.28177e-06
7.69719e-08
-9.35975e-06
7.52217e-08
-9.43635e-06
7.3859e-08
-9.5118e-06
7.27424e-08
-9.58618e-06
7.17181e-08
-9.65937e-06
7.05724e-08
-9.73093e-06
6.90081e-08
-9.80002e-06
6.66085e-08
-9.86525e-06
6.28124e-08
-9.92455e-06
5.69774e-08
-9.97529e-06
4.84935e-08
-1.00144e-05
3.69613e-08
-1.0039e-05
2.25389e-08
-1.00474e-05
6.48867e-09
-1.00367e-05
-1.25356e-08
-1.00001e-05
-3.83959e-08
-9.9303e-06
-7.13755e-08
-9.81859e-06
-1.13216e-07
-9.65563e-06
-1.64352e-07
-9.43235e-06
-2.24552e-07
-9.14057e-06
-2.92942e-07
-8.77372e-06
-3.67894e-07
-8.32774e-06
-4.46904e-07
-7.80206e-06
-5.26518e-07
-7.20048e-06
-6.02313e-07
-6.53217e-06
-6.68957e-07
-5.81245e-06
-7.20307e-07
-5.06332e-06
-7.49651e-07
-4.31328e-06
-7.50521e-07
-3.59669e-06
-7.1704e-07
-2.95218e-06
-6.44932e-07
-2.41942e-06
-5.33168e-07
-2.03357e-06
-3.86245e-07
-1.81734e-06
-2.16612e-07
-1.77016e-06
-4.75703e-08
-1.91323e-06
1.4268e-07
-2.2393e-06
3.25686e-07
-2.70105e-06
4.61365e-07
-3.24632e-06
5.4489e-07
-3.82722e-06
5.80547e-07
-4.41347e-06
5.85917e-07
-4.99213e-06
5.78387e-07
-5.56104e-06
5.68693e-07
-6.1241e-06
5.62921e-07
-6.68552e-06
5.6137e-07
-7.24474e-06
5.59268e-07
-7.79383e-06
5.49237e-07
-8.31793e-06
5.24351e-07
-8.79821e-06
4.8062e-07
-9.21595e-06
4.18176e-07
-9.55653e-06
3.41093e-07
-9.8122e-06
2.56238e-07
-9.98334e-06
1.71776e-07
-1.00784e-05
9.57685e-08
-1.01129e-05
3.51247e-08
-1.01061e-05
-6.05818e-09
-1.0069e-05
-3.63686e-08
-1.0011e-05
-5.72328e-08
-9.9407e-06
-6.94921e-08
-9.87649e-06
-6.34136e-08
-9.85274e-06
-2.29609e-08
-9.9129e-06
6.09663e-08
-1.00931e-05
1.81082e-07
-1.04117e-05
3.19471e-07
-1.08696e-05
4.58825e-07
-1.14568e-05
5.88192e-07
-1.21544e-05
6.98666e-07
-1.29361e-05
7.82894e-07
-1.37701e-05
8.35291e-07
-1.46217e-05
8.52946e-07
-1.54556e-05
8.35374e-07
-1.62391e-05
7.84989e-07
-1.69448e-05
7.07141e-07
-1.75528e-05
6.09469e-07
-1.80522e-05
5.00781e-07
-1.84405e-05
3.89631e-07
-1.87227e-05
2.8336e-07
-1.89091e-05
1.87545e-07
-1.90136e-05
1.05481e-07
-1.9052e-05
3.9309e-08
-1.9044e-05
-7.19577e-09
-1.89896e-05
-5.36832e-08
-1.88953e-05
-9.36631e-08
-1.87638e-05
-1.31028e-07
-1.86e-05
-1.63302e-07
-1.84134e-05
-1.86185e-07
-1.82179e-05
-1.95221e-07
-1.80316e-05
-1.86102e-07
-1.78762e-05
-1.5513e-07
-1.77774e-05
-9.8683e-08
-1.77629e-05
-1.4335e-08
-1.78466e-05
8.37797e-08
-1.80259e-05
1.7936e-07
-1.8301e-05
2.75109e-07
-1.86782e-05
3.77158e-07
-1.91656e-05
4.87287e-07
-1.97714e-05
6.05623e-07
-2.05034e-05
7.31813e-07
-2.13689e-05
8.65255e-07
-2.23744e-05
1.00514e-06
-2.35253e-05
1.1505e-06
-2.48259e-05
1.30016e-06
-2.62793e-05
1.45284e-06
-2.7887e-05
1.60714e-06
-2.96493e-05
1.76157e-06
-3.15648e-05
1.91459e-06
-3.36305e-05
2.06464e-06
-3.58417e-05
2.21011e-06
-3.81923e-05
2.34929e-06
-4.06742e-05
2.48035e-06
-4.3277e-05
2.60119e-06
-4.59881e-05
2.70937e-06
-4.87919e-05
2.80198e-06
-5.16693e-05
2.87551e-06
-5.45969e-05
2.92565e-06
-5.7546e-05
2.94705e-06
-6.0481e-05
2.93301e-06
-6.33582e-05
2.87516e-06
-6.61232e-05
2.76304e-06
-6.87086e-05
2.58338e-06
-7.10289e-05
2.31839e-06
-7.29744e-05
1.94356e-06
-7.44057e-05
1.42945e-06
-7.51454e-05
7.37918e-07
-7.49223e-05
-2.24763e-07
-7.34755e-05
-1.44847e-06
-7.04453e-05
-3.03192e-06
-6.549e-05
-4.95683e-06
-5.82836e-05
-7.20799e-06
-4.85694e-05
-9.71573e-06
-3.62888e-05
-1.2282e-05
-2.19049e-05
-1.43852e-05
-7.26889e-06
-1.46373e-05
2.55223e-06
-9.82232e-06
2.55267e-06
-7.1364e-06
1.59568e-05
-9.72157e-06
2.81092e-06
-9.92589e-06
-1.61525e-06
-9.78902e-06
-1.59857e-06
-9.9151e-06
-6.71094e-07
-1.04081e-05
2.30935e-07
-1.12007e-05
9.09167e-07
-1.22412e-05
1.39096e-06
-1.34877e-05
1.73444e-06
-1.48936e-05
1.9742e-06
-1.64014e-05
2.12142e-06
-1.7941e-05
2.17059e-06
-1.94321e-05
2.1103e-06
-2.07911e-05
1.93416e-06
-2.19423e-05
1.64814e-06
-2.28273e-05
1.27256e-06
-2.34112e-05
8.39337e-07
-2.36847e-05
3.86847e-07
-2.36548e-05
-4.61846e-08
-2.33631e-05
-4.42623e-07
-2.28464e-05
-7.85506e-07
-2.21559e-05
-1.06305e-06
-2.13461e-05
-1.26694e-06
-2.04675e-05
-1.39814e-06
-1.95617e-05
-1.46451e-06
-1.86608e-05
-1.47702e-06
-1.77883e-05
-1.4471e-06
-1.69607e-05
-1.38492e-06
-1.61893e-05
-1.29876e-06
-1.54821e-05
-1.19497e-06
-1.48446e-05
-1.0782e-06
-1.4281e-05
-9.51814e-07
-1.37944e-05
-8.18193e-07
-1.33872e-05
-6.79166e-07
-1.30615e-05
-5.35982e-07
-1.28192e-05
-3.89526e-07
-1.26623e-05
-2.40192e-07
-1.25952e-05
-8.69647e-08
-1.26266e-05
7.6934e-08
-1.27643e-05
2.53557e-07
-1.30106e-05
4.27985e-07
-1.33614e-05
5.92233e-07
-1.38085e-05
7.39882e-07
-1.43409e-05
8.66442e-07
-1.49451e-05
9.67999e-07
-1.56058e-05
1.04226e-06
-1.63065e-05
1.08852e-06
-1.70307e-05
1.10762e-06
-1.77631e-05
1.10193e-06
-1.84898e-05
1.07502e-06
-1.91996e-05
1.03125e-06
-1.98835e-05
9.7539e-07
-2.05357e-05
9.12128e-07
-2.11523e-05
8.45704e-07
-2.17318e-05
7.79635e-07
-2.22743e-05
7.16559e-07
-2.2781e-05
6.58203e-07
-2.32539e-05
6.05458e-07
-2.36951e-05
5.58526e-07
-2.4107e-05
5.17108e-07
-2.44917e-05
4.80619e-07
-2.48512e-05
4.48341e-07
-2.51871e-05
4.19558e-07
-2.55011e-05
3.93635e-07
-2.57944e-05
3.7004e-07
-2.60681e-05
3.48345e-07
-2.63234e-05
3.28196e-07
-2.65611e-05
3.09263e-07
-2.67816e-05
2.91177e-07
-2.69854e-05
2.73487e-07
-2.71723e-05
2.55604e-07
-2.73419e-05
2.36742e-07
-2.74928e-05
2.1589e-07
-2.76235e-05
1.91817e-07
-2.77312e-05
1.63198e-07
-2.78129e-05
1.288e-07
-2.78648e-05
8.76038e-08
-2.78832e-05
3.96792e-08
-2.78657e-05
-1.20427e-08
-2.77985e-05
-8.07514e-08
-2.76719e-05
-1.65897e-07
-2.74729e-05
-2.71194e-07
-2.71899e-05
-3.96908e-07
-2.6813e-05
-5.41795e-07
-2.63348e-05
-7.03309e-07
-2.57507e-05
-8.77582e-07
-2.50596e-05
-1.05937e-06
-2.42649e-05
-1.24204e-06
-2.33743e-05
-1.41755e-06
-2.24004e-05
-1.57653e-06
-2.13612e-05
-1.70849e-06
-2.02799e-05
-1.80202e-06
-1.91846e-05
-1.84531e-06
-1.81086e-05
-1.82695e-06
-1.70891e-05
-1.73702e-06
-1.61658e-05
-1.56867e-06
-1.53792e-05
-1.32026e-06
-1.47682e-05
-9.97677e-07
-1.43711e-05
-6.14182e-07
-1.42441e-05
-1.75046e-07
-1.44362e-05
3.34488e-07
-1.49593e-05
8.48472e-07
-1.57787e-05
1.28063e-06
-1.68451e-05
1.6112e-06
-1.81118e-05
1.84727e-06
-1.95316e-05
2.0059e-06
-2.10571e-05
2.10417e-06
-2.26417e-05
2.15381e-06
-2.42382e-05
2.16008e-06
-2.57992e-05
2.1232e-06
-2.72805e-05
2.0415e-06
-2.86441e-05
1.91387e-06
-2.98606e-05
1.74195e-06
-3.09103e-05
1.53141e-06
-3.17832e-05
1.29222e-06
-3.24789e-05
1.03801e-06
-3.30063e-05
7.84739e-07
-3.33825e-05
5.4905e-07
-3.36322e-05
3.46532e-07
-3.37863e-05
1.90284e-07
-3.38807e-05
8.93445e-08
-3.3964e-05
4.79558e-08
-3.40864e-05
6.6167e-08
-3.42938e-05
1.38904e-07
-3.46204e-05
2.64298e-07
-3.50808e-05
4.3849e-07
-3.56754e-05
6.56761e-07
-3.64053e-05
9.12161e-07
-3.72731e-05
1.18859e-06
-3.82749e-05
1.46202e-06
-3.93935e-05
1.70823e-06
-4.05994e-05
1.90623e-06
-4.18548e-05
2.03995e-06
-4.3117e-05
2.09913e-06
-4.43423e-05
2.07997e-06
-4.54906e-05
1.98528e-06
-4.65283e-05
1.8241e-06
-4.74301e-05
1.61028e-06
-4.81804e-05
1.36094e-06
-4.87733e-05
1.09466e-06
-4.92118e-05
8.28858e-07
-4.95059e-05
5.78073e-07
-4.96715e-05
3.53558e-07
-4.97282e-05
1.62394e-07
-4.96962e-05
7.50312e-09
-4.95887e-05
-1.14671e-07
-4.94293e-05
-2.13262e-07
-4.92364e-05
-2.86819e-07
-4.90334e-05
-3.34408e-07
-4.88413e-05
-3.5586e-07
-4.86781e-05
-3.49862e-07
-4.85598e-05
-3.14067e-07
-4.85011e-05
-2.45418e-07
-4.85157e-05
-1.41163e-07
-4.86126e-05
-2.32524e-09
-4.87859e-05
1.58406e-07
-4.90369e-05
3.3413e-07
-4.9384e-05
5.25833e-07
-4.98409e-05
7.3135e-07
-5.04137e-05
9.49178e-07
-5.11057e-05
1.17851e-06
-5.1919e-05
1.41811e-06
-5.28544e-05
1.66631e-06
-5.39113e-05
1.92117e-06
-5.50877e-05
2.18052e-06
-5.63803e-05
2.44201e-06
-5.77846e-05
2.70317e-06
-5.92945e-05
2.96141e-06
-6.09029e-05
3.2141e-06
-6.26015e-05
3.45859e-06
-6.43809e-05
3.69224e-06
-6.62305e-05
3.91241e-06
-6.81388e-05
4.11643e-06
-7.00931e-05
4.30149e-06
-7.20794e-05
4.46452e-06
-7.40825e-05
4.60203e-06
-7.60854e-05
4.70987e-06
-7.80688e-05
4.78296e-06
-8.00107e-05
4.81504e-06
-8.18858e-05
4.79828e-06
-8.3664e-05
4.72279e-06
-8.53095e-05
4.57608e-06
-8.6779e-05
4.34226e-06
-8.80197e-05
4.00134e-06
-8.89667e-05
3.5281e-06
-8.95405e-05
2.88985e-06
-8.96407e-05
2.04153e-06
-8.91315e-05
9.18173e-07
-8.78556e-05
-5.40099e-07
-8.5708e-05
-2.37432e-06
-8.24974e-05
-4.6611e-06
-7.80439e-05
-7.48728e-06
-7.20749e-05
-1.09277e-05
-6.42947e-05
-1.499e-05
-5.44594e-05
-1.95526e-05
-4.25214e-05
-2.42217e-05
-2.88959e-05
-2.80123e-05
-1.48061e-05
-2.87287e-05
-2.55187e-06
-2.20779e-05
1.68072e-10
-5.85039e-06
2.18075e-05
-9.08455e-06
6.04476e-06
-1.06193e-05
-8.09266e-08
-1.1682e-05
-5.36298e-07
-1.2791e-05
4.37552e-07
-1.40407e-05
1.48024e-06
-1.54875e-05
2.35529e-06
-1.71545e-05
3.05693e-06
-1.90187e-05
3.59681e-06
-2.10183e-05
3.97103e-06
-2.30614e-05
4.1602e-06
-2.50376e-05
4.14067e-06
-2.68345e-05
3.89935e-06
-2.83545e-05
3.44438e-06
-2.95259e-05
2.80818e-06
-3.03094e-05
2.04339e-06
-3.06982e-05
1.21468e-06
-3.07146e-05
3.89261e-07
-3.03972e-05
-3.7771e-07
-2.98167e-05
-1.03631e-06
-2.90571e-05
-1.55678e-06
-2.82013e-05
-1.92902e-06
-2.73138e-05
-2.16292e-06
-2.64391e-05
-2.2798e-06
-2.56052e-05
-2.30402e-06
-2.48285e-05
-2.25828e-06
-2.41176e-05
-2.16147e-06
-2.34772e-05
-2.02811e-06
-2.29093e-05
-1.86874e-06
-2.24152e-05
-1.69061e-06
-2.19958e-05
-1.49862e-06
-2.16522e-05
-1.29601e-06
-2.1386e-05
-1.08464e-06
-2.11994e-05
-8.65726e-07
-2.10961e-05
-6.38998e-07
-2.10818e-05
-4.03184e-07
-2.11682e-05
-1.53026e-07
-2.13744e-05
1.20185e-07
-2.17043e-05
4.07837e-07
-2.21415e-05
6.91964e-07
-2.26761e-05
9.63937e-07
-2.32994e-05
1.21687e-06
-2.4002e-05
1.44365e-06
-2.47727e-05
1.63807e-06
-2.55992e-05
1.79519e-06
-2.64687e-05
1.91202e-06
-2.73681e-05
1.98774e-06
-2.82848e-05
2.0237e-06
-2.92072e-05
2.02325e-06
-3.0125e-05
1.99126e-06
-3.10293e-05
1.9336e-06
-3.19128e-05
1.8565e-06
-3.27692e-05
1.76603e-06
-3.35939e-05
1.66764e-06
-3.4383e-05
1.56585e-06
-3.51335e-05
1.46415e-06
-3.58431e-05
1.36501e-06
-3.65104e-05
1.26998e-06
-3.71343e-05
1.17987e-06
-3.77146e-05
1.09495e-06
-3.82514e-05
1.01514e-06
-3.87454e-05
9.402e-07
-3.91976e-05
8.69788e-07
-3.96093e-05
8.0356e-07
-3.99821e-05
7.41173e-07
-4.03176e-05
6.82281e-07
-4.06173e-05
6.26501e-07
-4.08827e-05
5.73377e-07
-4.1115e-05
5.22316e-07
-4.13151e-05
4.72536e-07
-4.14835e-05
4.23029e-07
-4.16201e-05
3.72492e-07
-4.17242e-05
3.1927e-07
-4.17945e-05
2.61369e-07
-4.18285e-05
1.96616e-07
-4.18232e-05
1.22951e-07
-4.17753e-05
3.92071e-08
-4.16785e-05
-5.73936e-08
-4.15169e-05
-1.73956e-07
-4.12825e-05
-3.15401e-07
-4.09693e-05
-4.79264e-07
-4.05753e-05
-6.65366e-07
-4.00995e-05
-8.72809e-07
-3.95423e-05
-1.09913e-06
-3.89056e-05
-1.34018e-06
-3.81933e-05
-1.59007e-06
-3.74117e-05
-1.84115e-06
-3.65699e-05
-2.084e-06
-3.56803e-05
-2.30749e-06
-3.47583e-05
-2.49884e-06
-3.38233e-05
-2.64386e-06
-3.28985e-05
-2.72726e-06
-3.20111e-05
-2.73324e-06
-3.11924e-05
-2.64631e-06
-3.04775e-05
-2.45244e-06
-2.99061e-05
-2.14076e-06
-2.95212e-05
-1.70576e-06
-2.93714e-05
-1.14795e-06
-2.95163e-05
-4.69695e-07
-3.00023e-05
3.10742e-07
-3.07804e-05
1.11275e-06
-3.17754e-05
1.84372e-06
-3.29793e-05
2.48515e-06
-3.43868e-05
3.01953e-06
-3.59756e-05
3.4371e-06
-3.77059e-05
3.73755e-06
-3.9526e-05
3.92587e-06
-4.13789e-05
4.00847e-06
-4.32082e-05
3.99123e-06
-4.49625e-05
3.87947e-06
-4.65982e-05
3.67934e-06
-4.80814e-05
3.39922e-06
-4.93884e-05
3.05098e-06
-5.05054e-05
2.65052e-06
-5.14288e-05
2.2176e-06
-5.21639e-05
1.7749e-06
-5.27239e-05
1.34652e-06
-5.31295e-05
9.56279e-07
-5.34074e-05
6.25831e-07
-5.35891e-05
3.73323e-07
-5.37105e-05
2.12082e-07
-5.38102e-05
1.48811e-07
-5.39272e-05
1.84366e-07
-5.40997e-05
3.12555e-07
-5.43569e-05
5.22656e-07
-5.47195e-05
8.02435e-07
-5.51991e-05
1.13773e-06
-5.57963e-05
1.51086e-06
-5.65033e-05
1.89717e-06
-5.7306e-05
2.2665e-06
-5.81834e-05
2.58759e-06
-5.91076e-05
2.83239e-06
-6.0045e-05
2.97931e-06
-6.09594e-05
3.01554e-06
-6.18157e-05
2.93816e-06
-6.25831e-05
2.7544e-06
-6.32383e-05
2.48068e-06
-6.37664e-05
2.1396e-06
-6.41617e-05
1.75707e-06
-6.4427e-05
1.36045e-06
-6.45727e-05
9.74649e-07
-6.46137e-05
6.18853e-07
-6.45684e-05
3.07787e-07
-6.4455e-05
4.81325e-08
-6.42949e-05
-1.53589e-07
-6.41123e-05
-2.98601e-07
-6.39329e-05
-3.94188e-07
-6.37753e-05
-4.46077e-07
-6.36489e-05
-4.62529e-07
-6.35582e-05
-4.48293e-07
-6.35056e-05
-4.04266e-07
-6.34925e-05
-3.28866e-07
-6.35201e-05
-2.19556e-07
-6.35887e-05
-7.43292e-08
-6.36977e-05
1.05024e-07
-6.38548e-05
3.13742e-07
-6.4076e-05
5.53636e-07
-6.43702e-05
8.18331e-07
-6.4743e-05
1.10236e-06
-6.51973e-05
1.40174e-06
-6.57338e-05
1.71328e-06
-6.63515e-05
2.03389e-06
-6.70475e-05
2.36044e-06
-6.78179e-05
2.68962e-06
-6.86575e-05
3.01805e-06
-6.95598e-05
3.34226e-06
-7.05176e-05
3.65873e-06
-7.15225e-05
3.96399e-06
-7.25654e-05
4.25464e-06
-7.36367e-05
4.52739e-06
-7.47262e-05
4.77907e-06
-7.58231e-05
5.00665e-06
-7.69166e-05
5.20713e-06
-7.79955e-05
5.37745e-06
-7.90482e-05
5.5143e-06
-8.0063e-05
5.61388e-06
-8.10279e-05
5.67166e-06
-8.19299e-05
5.68195e-06
-8.27555e-05
5.63758e-06
-8.34896e-05
5.52934e-06
-8.41152e-05
5.3454e-06
-8.46126e-05
5.07051e-06
-8.49582e-05
4.68499e-06
-8.51232e-05
4.16356e-06
-8.50718e-05
3.47403e-06
-8.476e-05
2.57546e-06
-8.4134e-05
1.4131e-06
-8.30997e-05
-1.18511e-07
-8.1659e-05
-1.98301e-06
-7.96864e-05
-4.34901e-06
-7.70022e-05
-7.34729e-06
-7.33741e-05
-1.11173e-05
-6.85298e-05
-1.57737e-05
-6.21709e-05
-2.13505e-05
-5.40256e-05
-2.76995e-05
-4.39596e-05
-3.42891e-05
-3.21508e-05
-3.98225e-05
-1.93359e-05
-4.1545e-05
-7.41088e-06
-3.40045e-05
-7.41188e-06
-5.13586e-06
2.69431e-05
-8.57982e-06
9.48789e-06
-1.08769e-05
2.21546e-06
-1.27634e-05
1.34962e-06
-1.45597e-05
2.2334e-06
-1.64216e-05
3.34136e-06
-1.84279e-05
4.36031e-06
-2.05937e-05
5.2204e-06
-2.28795e-05
5.87898e-06
-2.52005e-05
6.28634e-06
-2.74416e-05
6.39345e-06
-2.94803e-05
6.16897e-06
-3.12072e-05
5.61339e-06
-3.2542e-05
4.76444e-06
-3.34434e-05
3.69323e-06
-3.39107e-05
2.49369e-06
-3.39819e-05
1.26873e-06
-3.37242e-05
1.15222e-07
-3.32284e-05
-8.88364e-07
-3.25948e-05
-1.68253e-06
-3.19127e-05
-2.24907e-06
-3.12443e-05
-2.60552e-06
-3.0626e-05
-2.78744e-06
-3.00762e-05
-2.83444e-06
-2.96014e-05
-2.78235e-06
-2.92024e-05
-2.65991e-06
-2.88773e-05
-2.4884e-06
-2.86239e-05
-2.28276e-06
-2.84405e-05
-2.0529e-06
-2.83266e-05
-1.80472e-06
-2.82835e-05
-1.54163e-06
-2.83139e-05
-1.26522e-06
-2.84233e-05
-9.74441e-07
-2.86196e-05
-6.68436e-07
-2.8915e-05
-3.42387e-07
-2.9333e-05
1.63442e-08
-2.98798e-05
3.9531e-07
-3.05224e-05
7.64578e-07
-3.12282e-05
1.11574e-06
-3.19834e-05
1.44931e-06
-3.27808e-05
1.76339e-06
-3.36147e-05
2.05265e-06
-3.44799e-05
2.31045e-06
-3.53712e-05
2.53048e-06
-3.62829e-05
2.70758e-06
-3.72093e-05
2.83852e-06
-3.81443e-05
2.92235e-06
-3.90819e-05
2.96038e-06
-4.00161e-05
2.956e-06
-4.09407e-05
2.91414e-06
-4.185e-05
2.84078e-06
-4.27381e-05
2.74227e-06
-4.35992e-05
2.62484e-06
-4.44282e-05
2.49422e-06
-4.52199e-05
2.35531e-06
-4.59701e-05
2.21218e-06
-4.66751e-05
2.06799e-06
-4.73321e-05
1.9251e-06
-4.7939e-05
1.7852e-06
-4.84949e-05
1.64941e-06
-4.89996e-05
1.51848e-06
-4.94534e-05
1.39287e-06
-4.98575e-05
1.27287e-06
-5.02133e-05
1.15856e-06
-5.05228e-05
1.0499e-06
-5.07879e-05
9.46702e-07
-5.10106e-05
8.4858e-07
-5.11927e-05
7.54971e-07
-5.13359e-05
6.65071e-07
-5.14415e-05
5.7779e-07
-5.15106e-05
4.91732e-07
-5.15435e-05
4.05134e-07
-5.15401e-05
3.15724e-07
-5.14997e-05
2.20753e-07
-5.14205e-05
1.17296e-07
-5.13005e-05
2.94262e-09
-5.11338e-05
-1.27488e-07
-5.09127e-05
-2.78501e-07
-5.06358e-05
-4.50827e-07
-5.03074e-05
-6.43669e-07
-4.99297e-05
-8.57009e-07
-4.95044e-05
-1.09058e-06
-4.90345e-05
-1.34275e-06
-4.85236e-05
-1.61009e-06
-4.79767e-05
-1.88716e-06
-4.74004e-05
-2.1665e-06
-4.68031e-05
-2.43856e-06
-4.61956e-05
-2.69174e-06
-4.5591e-05
-2.91241e-06
-4.50052e-05
-3.08507e-06
-4.44569e-05
-3.19263e-06
-4.39678e-05
-3.21686e-06
-4.35625e-05
-3.13915e-06
-4.32678e-05
-2.94162e-06
-4.31119e-05
-2.60888e-06
-4.31226e-05
-2.13055e-06
-4.33248e-05
-1.50398e-06
-4.37366e-05
-7.36239e-07
-4.43589e-05
1.52819e-07
-4.51258e-05
1.0782e-06
-4.60014e-05
1.98913e-06
-4.70206e-05
2.86417e-06
-4.81976e-05
3.66361e-06
-4.95253e-05
4.3491e-06
-5.09812e-05
4.89515e-06
-5.25297e-05
5.28859e-06
-5.41264e-05
5.52531e-06
-5.57223e-05
5.60725e-06
-5.72684e-05
5.54047e-06
-5.87203e-05
5.33455e-06
-6.00406e-05
5.00276e-06
-6.12008e-05
4.5626e-06
-6.21829e-05
4.0361e-06
-6.2979e-05
3.44951e-06
-6.35911e-05
2.8324e-06
-6.40298e-05
2.21616e-06
-6.43129e-05
1.63191e-06
-6.44636e-05
1.10901e-06
-6.4509e-05
6.73036e-07
-6.44783e-05
3.44115e-07
-6.44026e-05
1.37826e-07
-6.43122e-05
5.97335e-08
-6.4237e-05
1.10439e-07
-6.42055e-05
2.82348e-07
-6.42381e-05
5.56596e-07
-6.43477e-05
9.1344e-07
-6.45371e-05
1.32873e-06
-6.48003e-05
1.77576e-06
-6.51244e-05
2.22328e-06
-6.5492e-05
2.63616e-06
-6.58809e-05
2.9788e-06
-6.62657e-05
3.21958e-06
-6.66189e-05
3.33499e-06
-6.69139e-05
3.31291e-06
-6.71278e-05
3.15431e-06
-6.72446e-05
2.8732e-06
-6.7258e-05
2.49569e-06
-6.71727e-05
2.05544e-06
-6.70017e-05
1.58678e-06
-6.67663e-05
1.12511e-06
-6.64935e-05
7.01376e-07
-6.62087e-05
3.33015e-07
-6.59303e-05
2.77406e-08
-6.5688e-05
-1.96192e-07
-6.54999e-05
-3.44219e-07
-6.53738e-05
-4.27586e-07
-6.53088e-05
-4.6211e-07
-6.52978e-05
-4.60056e-07
-6.53326e-05
-4.3084e-07
-6.54045e-05
-3.79367e-07
-6.5507e-05
-3.0484e-07
-6.56352e-05
-2.03616e-07
-6.57845e-05
-7.32707e-08
-6.5953e-05
9.13096e-08
-6.61454e-05
2.94414e-07
-6.63707e-05
5.36165e-07
-6.66312e-05
8.11259e-07
-6.69285e-05
1.11276e-06
-6.72634e-05
1.43445e-06
-6.76357e-05
1.77112e-06
-6.80434e-05
2.11816e-06
-6.84836e-05
2.47129e-06
-6.89523e-05
2.82631e-06
-6.94446e-05
3.17905e-06
-6.99548e-05
3.52533e-06
-7.04766e-05
3.86105e-06
-7.10031e-05
4.1822e-06
-7.15271e-05
4.48492e-06
-7.20412e-05
4.76559e-06
-7.25378e-05
5.02086e-06
-7.30097e-05
5.24767e-06
-7.34497e-05
5.44322e-06
-7.38508e-05
5.60491e-06
-7.42071e-05
5.73019e-06
-7.45127e-05
5.8164e-06
-7.47627e-05
5.86045e-06
-7.49532e-05
5.85856e-06
-7.50805e-05
5.8058e-06
-7.51421e-05
5.69564e-06
-7.51355e-05
5.51929e-06
-7.50584e-05
5.265e-06
-7.49082e-05
4.91704e-06
-7.46807e-05
4.4544e-06
-7.43694e-05
3.84919e-06
-7.39629e-05
3.06467e-06
-7.34434e-05
2.05326e-06
-7.27856e-05
7.52814e-07
-7.20057e-05
-9.00755e-07
-7.10098e-05
-2.98118e-06
-6.9698e-05
-5.66275e-06
-6.79203e-05
-9.12675e-06
-6.54739e-05
-1.35653e-05
-6.2099e-05
-1.915e-05
-5.74849e-05
-2.59657e-05
-5.13023e-05
-3.3883e-05
-4.32752e-05
-4.2317e-05
-3.33074e-05
-4.97909e-05
-2.17002e-05
-5.3153e-05
-9.5652e-06
-4.61405e-05
-1.6978e-05
-4.67224e-06
3.16146e-05
-8.23589e-06
1.30501e-05
-1.09537e-05
4.93226e-06
-1.33478e-05
3.74303e-06
-1.56374e-05
4.52226e-06
-1.79586e-05
5.66131e-06
-2.03668e-05
6.76627e-06
-2.28568e-05
7.70656e-06
-2.53695e-05
8.38576e-06
-2.78055e-05
8.71377e-06
-3.00464e-05
8.62275e-06
-3.19786e-05
8.08676e-06
-3.35145e-05
7.13251e-06
-3.46066e-05
5.83805e-06
-3.52541e-05
4.32137e-06
-3.55021e-05
2.72263e-06
-3.54342e-05
1.183e-06
-3.51577e-05
-1.77014e-07
-3.4786e-05
-1.27311e-06
-3.44089e-05
-2.06981e-06
-3.4082e-05
-2.58369e-06
-3.38324e-05
-2.86083e-06
-3.36685e-05
-2.9555e-06
-3.35884e-05
-2.91746e-06
-3.35861e-05
-2.78666e-06
-3.36552e-05
-2.59219e-06
-3.37908e-05
-2.35362e-06
-3.39903e-05
-2.08364e-06
-3.42534e-05
-1.78981e-06
-3.45828e-05
-1.47504e-06
-3.49839e-05
-1.13996e-06
-3.54629e-05
-7.85391e-07
-3.60306e-05
-4.05694e-07
-3.67029e-05
5.17775e-09
-3.74726e-05
4.28768e-07
-3.82931e-05
8.38541e-07
-3.91204e-05
1.22447e-06
-3.99463e-05
1.59247e-06
-4.07756e-05
1.94695e-06
-4.16101e-05
2.28572e-06
-4.24489e-05
2.6038e-06
-4.32896e-05
2.89469e-06
-4.41297e-05
3.15154e-06
-4.49667e-05
3.36811e-06
-4.57985e-05
3.53951e-06
-4.66229e-05
3.66266e-06
-4.74378e-05
3.73659e-06
-4.82408e-05
3.76243e-06
-4.90293e-05
3.74323e-06
-4.98001e-05
3.68348e-06
-5.05495e-05
3.58869e-06
-5.12735e-05
3.46484e-06
-5.19681e-05
3.31795e-06
-5.26289e-05
3.15374e-06
-5.32522e-05
2.97736e-06
-5.38344e-05
2.79333e-06
-5.43727e-05
2.60545e-06
-5.48652e-05
2.41686e-06
-5.53107e-05
2.23005e-06
-5.57087e-05
2.04693e-06
-5.60596e-05
1.86895e-06
-5.63642e-05
1.69722e-06
-5.66242e-05
1.53253e-06
-5.68412e-05
1.37536e-06
-5.70174e-05
1.22587e-06
-5.71548e-05
1.08397e-06
-5.72556e-05
9.49257e-07
-5.73218e-05
8.21035e-07
-5.73551e-05
6.98306e-07
-5.73571e-05
5.79727e-07
-5.73291e-05
4.63604e-07
-5.72718e-05
3.47876e-07
-5.71861e-05
2.29936e-07
-5.70717e-05
1.06427e-07
-5.69277e-05
-2.66537e-08
-5.67535e-05
-1.71146e-07
-5.65487e-05
-3.32305e-07
-5.63174e-05
-5.09753e-07
-5.6064e-05
-7.04186e-07
-5.5791e-05
-9.16602e-07
-5.55006e-05
-1.14734e-06
-5.51956e-05
-1.39561e-06
-5.48794e-05
-1.65891e-06
-5.45567e-05
-1.9328e-06
-5.42333e-05
-2.21065e-06
-5.39163e-05
-2.48364e-06
-5.36143e-05
-2.74075e-06
-5.33374e-05
-2.96884e-06
-5.30974e-05
-3.15273e-06
-5.29073e-05
-3.27553e-06
-5.27812e-05
-3.31906e-06
-5.27338e-05
-3.26465e-06
-5.27791e-05
-3.09415e-06
-5.29295e-05
-2.79154e-06
-5.31936e-05
-2.34505e-06
-5.35745e-05
-1.74966e-06
-5.40687e-05
-1.00964e-06
-5.46618e-05
-1.42572e-07
-5.53122e-05
8.04162e-07
-5.60173e-05
1.78447e-06
-5.68048e-05
2.77816e-06
-5.76825e-05
3.74375e-06
-5.86465e-05
4.62996e-06
-5.96863e-05
5.39167e-06
-6.0783e-05
5.99493e-06
-6.19088e-05
6.41787e-06
-6.30294e-05
6.64959e-06
-6.41067e-05
6.68849e-06
-6.51029e-05
6.54074e-06
-6.59838e-05
6.21959e-06
-6.6722e-05
5.74501e-06
-6.72988e-05
5.14341e-06
-6.77059e-05
4.44702e-06
-6.79452e-05
3.69251e-06
-6.80284e-05
2.91886e-06
-6.79747e-05
2.16557e-06
-6.78096e-05
1.46948e-06
-6.75614e-05
8.63282e-07
-6.726e-05
3.73698e-07
-6.69295e-05
1.55333e-08
-6.66005e-05
-1.89638e-07
-6.62938e-05
-2.45496e-07
-6.60186e-05
-1.63496e-07
-6.57824e-05
4.74499e-08
-6.55826e-05
3.58321e-07
-6.5426e-05
7.58439e-07
-6.53071e-05
1.21174e-06
-6.52132e-05
1.6839e-06
-6.5127e-05
2.13943e-06
-6.50285e-05
2.54022e-06
-6.48953e-05
2.8485e-06
-6.47044e-05
3.03163e-06
-6.44333e-05
3.06692e-06
-6.40631e-05
2.9457e-06
-6.35825e-05
2.67655e-06
-6.29911e-05
2.2844e-06
-6.23033e-05
1.80996e-06
-6.15527e-05
1.30627e-06
-6.07802e-05
8.14955e-07
-6.00303e-05
3.75118e-07
-5.93494e-05
1.95979e-08
-5.87922e-05
-2.25962e-07
-5.84004e-05
-3.6664e-07
-5.81731e-05
-4.26812e-07
-5.80849e-05
-4.36052e-07
-5.81062e-05
-4.10139e-07
-5.82135e-05
-3.58808e-07
-5.83879e-05
-2.89657e-07
-5.8613e-05
-2.09738e-07
-5.88723e-05
-1.24021e-07
-5.91524e-05
-2.86912e-08
-5.9449e-05
8.90578e-08
-5.97667e-05
2.40587e-07
-6.01102e-05
4.30774e-07
-6.04745e-05
6.54816e-07
-6.0851e-05
9.08768e-07
-6.12326e-05
1.189e-06
-6.16143e-05
1.49072e-06
-6.19924e-05
1.80888e-06
-6.23635e-05
2.13859e-06
-6.27241e-05
2.47517e-06
-6.30703e-05
2.81403e-06
-6.33982e-05
3.15069e-06
-6.37032e-05
3.48068e-06
-6.3981e-05
3.79963e-06
-6.42267e-05
4.10331e-06
-6.44356e-05
4.38767e-06
-6.4603e-05
4.64895e-06
-6.47247e-05
4.88376e-06
-6.47964e-05
5.0891e-06
-6.48147e-05
5.26244e-06
-6.47767e-05
5.40162e-06
-6.46803e-05
5.50485e-06
-6.45243e-05
5.57055e-06
-6.43087e-05
5.59716e-06
-6.40348e-05
5.58289e-06
-6.37052e-05
5.52535e-06
-6.33241e-05
5.42112e-06
-6.28972e-05
5.26523e-06
-6.24319e-05
5.05046e-06
-6.19367e-05
4.76648e-06
-6.14216e-05
4.39872e-06
-6.08971e-05
3.9268e-06
-6.03731e-05
3.32227e-06
-5.9857e-05
2.54585e-06
-5.93529e-05
1.54651e-06
-5.88643e-05
2.61922e-07
-5.84016e-05
-1.36571e-06
-5.79149e-05
-3.4698e-06
-5.7328e-05
-6.25137e-06
-5.65242e-05
-9.93204e-06
-5.53297e-05
-1.4761e-05
-5.34979e-05
-2.09826e-05
-5.07021e-05
-2.87622e-05
-4.65448e-05
-3.80406e-05
-4.05996e-05
-4.82623e-05
-3.25075e-05
-5.7883e-05
-2.21762e-05
-6.34843e-05
-1.02393e-05
-5.80777e-05
-2.72179e-05
-4.34717e-06
3.59603e-05
-7.98294e-06
1.66839e-05
-1.09346e-05
7.8826e-06
-1.36242e-05
6.43183e-06
-1.62329e-05
7.12988e-06
-1.88487e-05
8.27529e-06
-2.15006e-05
9.41483e-06
-2.41636e-05
1.03642e-05
-2.67664e-05
1.09804e-05
-2.92073e-05
1.11433e-05
-3.13769e-05
1.07777e-05
-3.31819e-05
9.87417e-06
-3.45641e-05
8.49511e-06
-3.55127e-05
6.76603e-06
-3.60674e-05
4.85558e-06
-3.6312e-05
2.9482e-06
-3.63592e-05
1.21345e-06
-3.63269e-05
-2.23055e-07
-3.63108e-05
-1.29961e-06
-3.63673e-05
-2.02098e-06
-3.65185e-05
-2.43789e-06
-3.67664e-05
-2.61678e-06
-3.71026e-05
-2.62181e-06
-3.75162e-05
-2.5056e-06
-3.79969e-05
-2.30703e-06
-3.85375e-05
-2.05227e-06
-3.91344e-05
-1.75701e-06
-3.97871e-05
-1.43097e-06
-4.0496e-05
-1.08062e-06
-4.12632e-05
-7.07342e-07
-4.20933e-05
-3.09267e-07
-4.29883e-05
1.10567e-07
-4.39242e-05
5.31231e-07
-4.4851e-05
9.33221e-07
-4.57369e-05
1.31602e-06
-4.65837e-05
1.68675e-06
-4.74062e-05
2.04851e-06
-4.8212e-05
2.39968e-06
-4.90011e-05
2.73735e-06
-4.97711e-05
3.05693e-06
-5.05191e-05
3.35277e-06
-5.12423e-05
3.6187e-06
-5.19389e-05
3.84865e-06
-5.26078e-05
4.03724e-06
-5.32485e-05
4.18029e-06
-5.38613e-05
4.27524e-06
-5.44464e-05
4.3213e-06
-5.5004e-05
4.31955e-06
-5.5534e-05
4.27271e-06
-5.6036e-05
4.18488e-06
-5.65089e-05
4.0611e-06
-5.69515e-05
3.90701e-06
-5.73623e-05
3.72842e-06
-5.77398e-05
3.53103e-06
-5.80827e-05
3.32015e-06
-5.839e-05
3.10063e-06
-5.86613e-05
2.87676e-06
-5.88966e-05
2.65228e-06
-5.90966e-05
2.43021e-06
-5.92625e-05
2.21294e-06
-5.93957e-05
2.0023e-06
-5.94981e-05
1.79977e-06
-5.95718e-05
1.60639e-06
-5.96191e-05
1.42274e-06
-5.96422e-05
1.24899e-06
-5.96431e-05
1.08489e-06
-5.96238e-05
9.29863e-07
-5.95857e-05
7.82956e-07
-5.95304e-05
6.42898e-07
-5.94588e-05
5.08089e-07
-5.93719e-05
3.76617e-07
-5.92705e-05
2.46331e-07
-5.91556e-05
1.14943e-07
-5.90258e-05
-2.34258e-08
-5.88868e-05
-1.65704e-07
-5.87391e-05
-3.18906e-07
-5.8588e-05
-4.835e-07
-5.84363e-05
-6.61474e-07
-5.8286e-05
-8.54606e-07
-5.81386e-05
-1.064e-06
-5.79963e-05
-1.28973e-06
-5.78616e-05
-1.53039e-06
-5.77378e-05
-1.78276e-06
-5.76291e-05
-2.0415e-06
-5.75408e-05
-2.29906e-06
-5.74788e-05
-2.5457e-06
-5.745e-05
-2.76959e-06
-5.7462e-05
-2.95697e-06
-5.75226e-05
-3.09232e-06
-5.76394e-05
-3.15886e-06
-5.78194e-05
-3.13917e-06
-5.8068e-05
-3.01611e-06
-5.83881e-05
-2.77412e-06
-5.87787e-05
-2.40081e-06
-5.92347e-05
-1.88886e-06
-5.97456e-05
-1.23832e-06
-6.02952e-05
-4.59245e-07
-6.08624e-05
4.2567e-07
-6.14361e-05
1.37925e-06
-6.20343e-05
2.38428e-06
-6.26602e-05
3.40619e-06
-6.3307e-05
4.39311e-06
-6.39657e-05
5.29164e-06
-6.46246e-05
6.0539e-06
-6.52674e-05
6.64154e-06
-6.5873e-05
7.02769e-06
-6.64163e-05
7.19729e-06
-6.68698e-05
7.1466e-06
-6.72069e-05
6.88254e-06
-6.74047e-05
6.42217e-06
-6.74472e-05
5.79215e-06
-6.73272e-05
5.02797e-06
-6.70481e-05
4.17226e-06
-6.66243e-05
3.27267e-06
-6.60798e-05
2.37806e-06
-6.54474e-05
1.53649e-06
-6.47649e-05
7.89899e-07
-6.40659e-05
1.66845e-07
-6.33926e-05
-2.97281e-07
-6.27937e-05
-5.81569e-07
-6.22826e-05
-6.99243e-07
-6.18489e-05
-6.77752e-07
-6.14737e-05
-5.37264e-07
-6.11298e-05
-2.94996e-07
-6.07989e-05
2.91095e-08
-6.04592e-05
4.20571e-07
-6.01077e-05
8.62406e-07
-5.97329e-05
1.31158e-06
-5.93166e-05
1.7259e-06
-5.88379e-05
2.06465e-06
-5.82744e-05
2.28829e-06
-5.76028e-05
2.36364e-06
-5.68021e-05
2.26984e-06
-5.5856e-05
2.00337e-06
-5.47612e-05
1.58522e-06
-5.35319e-05
1.05837e-06
-5.21982e-05
4.78985e-07
-5.08185e-05
-7.13338e-08
-4.95e-05
-5.02253e-07
-4.83625e-05
-7.6222e-07
-4.74743e-05
-8.69436e-07
-4.6839e-05
-8.62987e-07
-4.64234e-05
-7.84739e-07
-4.61917e-05
-6.61577e-07
-4.6119e-05
-5.12285e-07
-4.61813e-05
-3.51617e-07
-4.63532e-05
-1.90883e-07
-4.66101e-05
-3.68021e-08
-4.69333e-05
1.09285e-07
-4.73144e-05
2.52981e-07
-4.77598e-05
4.12336e-07
-4.82667e-05
5.9151e-07
-4.88203e-05
7.896e-07
-4.93986e-05
1.00447e-06
-4.99831e-05
1.23481e-06
-5.05586e-05
1.47987e-06
-5.11125e-05
1.73853e-06
-5.16347e-05
2.00868e-06
-5.21175e-05
2.28751e-06
-5.25546e-05
2.57176e-06
-5.29412e-05
2.85784e-06
-5.32729e-05
3.14194e-06
-5.35459e-05
3.42008e-06
-5.37571e-05
3.68821e-06
-5.39033e-05
3.94232e-06
-5.39819e-05
4.17849e-06
-5.39907e-05
4.39305e-06
-5.39278e-05
4.58268e-06
-5.37919e-05
4.74447e-06
-5.35821e-05
4.87602e-06
-5.32984e-05