/*--------------------------------*- C++ -*----------------------------------*\
  =========                 |
  \\      /  F ield         | OpenFOAM: The Open Source CFD Toolbox
   \\    /   O peration     | Website:  https://openfoam.org
    \\  /    A nd           | Version:  11
     \\/     M anipulation  |
\*---------------------------------------------------------------------------*/
FoamFile
{
    format      ascii;
    class       volScalarField;
    location    "19";
    object      T;
}
// * * * * * * * * * * * * * * * * * * * * * * * * * * * * * * * * * * * * * //

dimensions      [0 0 0 1 0 0 0];

internalField   nonuniform List<scalar> 
40000
(
298.667
294.496
293.579
293.358
293.299
293.283
293.278
293.276
293.275
293.273
293.271
293.266
293.26
293.249
293.234
293.214
293.188
293.157
293.118
293.073
293.021
292.963
292.9
292.835
292.769
292.704
292.64
292.58
292.522
292.467
292.416
292.368
292.323
292.281
292.242
292.205
292.171
292.139
292.109
292.081
292.053
292.027
292.002
291.978
291.955
291.933
291.911
291.89
291.869
291.848
291.827
291.806
291.784
291.762
291.739
291.716
291.692
291.667
291.641
291.614
291.587
291.559
291.531
291.502
291.473
291.443
291.414
291.384
291.354
291.325
291.295
291.266
291.238
291.209
291.182
291.155
291.128
291.103
291.078
291.054
291.031
291.009
290.988
290.968
290.949
290.932
290.915
290.9
290.886
290.872
290.86
290.848
290.838
290.827
290.817
290.808
290.798
290.789
290.78
290.77
290.761
290.752
290.743
290.734
290.725
290.716
290.708
290.7
290.693
290.687
290.682
290.678
290.675
290.673
290.672
290.672
290.672
290.673
290.674
290.675
290.677
290.679
290.681
290.682
290.684
290.686
290.687
290.689
290.691
290.693
290.695
290.698
290.702
290.707
290.712
290.718
290.725
290.731
290.738
290.743
290.748
290.752
290.755
290.756
290.756
290.755
290.753
290.75
290.747
290.742
290.736
290.73
290.722
290.715
290.707
290.698
290.69
290.682
290.673
290.664
290.654
290.643
290.632
290.62
290.607
290.594
290.58
290.565
290.55
290.534
290.518
290.5
290.482
290.463
290.443
290.423
290.402
290.381
290.359
290.338
290.316
290.295
290.274
290.253
290.232
290.211
290.191
290.17
290.15
290.129
290.107
290.077
290.037
289.984
289.912
289.816
289.686
289.505
289.212
288.646
298.934
294.489
293.541
293.337
293.291
293.279
293.275
293.273
293.269
293.262
293.25
293.232
293.204
293.165
293.115
293.055
292.984
292.905
292.818
292.724
292.626
292.53
292.439
292.356
292.281
292.215
292.157
292.106
292.061
292.022
291.988
291.958
291.932
291.909
291.888
291.87
291.855
291.841
291.829
291.817
291.806
291.796
291.786
291.776
291.765
291.754
291.742
291.728
291.713
291.696
291.678
291.657
291.634
291.609
291.583
291.555
291.527
291.497
291.467
291.437
291.407
291.377
291.347
291.318
291.29
291.262
291.235
291.208
291.183
291.158
291.134
291.111
291.089
291.068
291.048
291.028
291.01
290.992
290.976
290.96
290.946
290.933
290.92
290.909
290.898
290.888
290.879
290.87
290.861
290.852
290.844
290.835
290.826
290.817
290.807
290.798
290.788
290.778
290.768
290.758
290.749
290.74
290.733
290.726
290.721
290.717
290.715
290.714
290.715
290.718
290.722
290.727
290.732
290.738
290.745
290.751
290.757
290.762
290.767
290.771
290.775
290.778
290.781
290.785
290.788
290.792
290.796
290.8
290.805
290.811
290.818
290.826
290.835
290.845
290.855
290.864
290.873
290.88
290.886
290.89
290.893
290.894
290.893
290.891
290.887
290.883
290.877
290.87
290.861
290.852
290.842
290.832
290.822
290.812
290.802
290.792
290.783
290.774
290.765
290.756
290.747
290.738
290.729
290.719
290.71
290.701
290.692
290.683
290.674
290.665
290.657
290.648
290.639
290.631
290.623
290.616
290.609
290.603
290.597
290.593
290.589
290.586
290.583
290.582
290.581
290.58
290.579
290.577
290.574
290.566
290.544
290.508
290.453
290.375
290.266
290.114
289.909
289.63
289.246
288.591
299.225
294.562
293.538
293.329
293.286
293.276
293.271
293.263
293.25
293.228
293.193
293.141
293.071
292.983
292.878
292.759
292.63
292.495
292.358
292.225
292.104
291.998
291.908
291.833
291.771
291.72
291.678
291.645
291.618
291.596
291.579
291.566
291.556
291.549
291.544
291.541
291.541
291.542
291.543
291.547
291.551
291.556
291.56
291.562
291.563
291.56
291.554
291.545
291.531
291.514
291.493
291.468
291.441
291.413
291.383
291.352
291.322
291.292
291.263
291.236
291.209
291.184
291.161
291.139
291.118
291.099
291.081
291.064
291.048
291.033
291.019
291.006
290.994
290.983
290.972
290.963
290.954
290.947
290.94
290.934
290.928
290.923
290.918
290.913
290.908
290.902
290.897
290.89
290.883
290.876
290.867
290.858
290.848
290.837
290.825
290.813
290.801
290.79
290.779
290.771
290.766
290.763
290.763
290.765
290.77
290.778
290.788
290.8
290.814
290.829
290.845
290.862
290.878
290.893
290.908
290.921
290.933
290.943
290.952
290.96
290.966
290.971
290.976
290.98
290.985
290.991
290.997
291.004
291.013
291.024
291.036
291.05
291.065
291.08
291.096
291.11
291.124
291.135
291.145
291.152
291.156
291.157
291.156
291.152
291.146
291.138
291.128
291.116
291.103
291.09
291.077
291.064
291.051
291.039
291.028
291.017
291.007
290.998
290.989
290.981
290.974
290.967
290.962
290.957
290.952
290.949
290.947
290.945
290.944
290.944
290.945
290.947
290.95
290.955
290.96
290.966
290.974
290.983
290.993
291.005
291.017
291.03
291.044
291.057
291.07
291.082
291.091
291.096
291.095
291.077
291.045
290.995
290.92
290.813
290.664
290.46
290.184
289.817
289.332
288.664
299.477
294.645
293.55
293.327
293.283
293.271
293.261
293.244
293.214
293.167
293.099
293.005
292.888
292.749
292.593
292.428
292.259
292.094
291.941
291.808
291.697
291.608
291.538
291.482
291.44
291.407
291.382
291.363
291.349
291.339
291.333
291.329
291.329
291.33
291.334
291.34
291.347
291.355
291.365
291.377
291.388
291.398
291.406
291.411
291.411
291.408
291.4
291.388
291.372
291.352
291.329
291.305
291.279
291.253
291.228
291.204
291.181
291.16
291.141
291.123
291.107
291.093
291.08
291.068
291.058
291.049
291.04
291.032
291.026
291.02
291.014
291.009
291.005
291.002
290.998
290.996
290.994
290.992
290.99
290.988
290.986
290.984
290.981
290.978
290.974
290.969
290.963
290.956
290.949
290.94
290.93
290.919
290.908
290.896
290.883
290.872
290.861
290.853
290.847
290.846
290.848
290.853
290.862
290.875
290.891
290.91
290.932
290.956
290.981
291.008
291.035
291.062
291.088
291.112
291.135
291.155
291.173
291.188
291.201
291.212
291.22
291.228
291.234
291.24
291.247
291.255
291.264
291.276
291.289
291.306
291.324
291.345
291.368
291.392
291.416
291.439
291.461
291.48
291.496
291.508
291.515
291.518
291.516
291.511
291.501
291.487
291.472
291.456
291.439
291.422
291.406
291.39
291.375
291.361
291.348
291.335
291.323
291.312
291.303
291.296
291.289
291.285
291.282
291.28
291.28
291.282
291.285
291.29
291.297
291.305
291.314
291.325
291.338
291.352
291.367
291.384
291.403
291.422
291.443
291.464
291.486
291.508
291.53
291.55
291.569
291.583
291.593
291.596
291.584
291.56
291.52
291.458
291.367
291.237
291.056
290.808
290.476
290.039
289.476
288.749
299.693
294.722
293.565
293.327
293.28
293.264
293.246
293.215
293.165
293.09
292.986
292.854
292.695
292.518
292.329
292.138
291.957
291.792
291.652
291.54
291.453
291.387
291.338
291.302
291.276
291.256
291.242
291.233
291.227
291.223
291.223
291.224
291.228
291.233
291.24
291.248
291.258
291.269
291.28
291.29
291.299
291.305
291.309
291.31
291.307
291.3
291.29
291.278
291.263
291.247
291.23
291.212
291.196
291.18
291.166
291.154
291.143
291.133
291.125
291.119
291.113
291.109
291.105
291.102
291.1
291.097
291.096
291.094
291.093
291.092
291.091
291.091
291.091
291.09
291.09
291.09
291.09
291.09
291.089
291.088
291.086
291.084
291.081
291.078
291.074
291.069
291.063
291.056
291.048
291.039
291.029
291.019
291.009
290.998
290.989
290.981
290.975
290.972
290.974
290.978
290.986
290.998
291.014
291.035
291.059
291.088
291.119
291.153
291.188
291.224
291.261
291.296
291.33
291.363
291.392
291.419
291.442
291.462
291.479
291.492
291.504
291.513
291.52
291.527
291.536
291.547
291.56
291.576
291.595
291.618
291.644
291.673
291.705
291.738
291.773
291.806
291.837
291.865
291.888
291.906
291.916
291.92
291.916
291.905
291.889
291.871
291.851
291.831
291.811
291.791
291.773
291.755
291.737
291.72
291.703
291.687
291.673
291.661
291.65
291.643
291.637
291.633
291.632
291.633
291.637
291.642
291.65
291.66
291.671
291.685
291.701
291.718
291.737
291.757
291.779
291.802
291.827
291.852
291.878
291.904
291.93
291.955
291.979
292.001
292.02
292.034
292.041
292.039
292.024
291.997
291.951
291.882
291.78
291.635
291.43
291.149
290.771
290.272
289.63
288.812
299.88
294.792
293.58
293.329
293.276
293.255
293.228
293.183
293.112
293.01
292.875
292.71
292.521
292.319
292.114
291.919
291.744
291.596
291.481
291.394
291.331
291.285
291.253
291.231
291.215
291.205
291.198
291.193
291.191
291.191
291.192
291.196
291.2
291.206
291.213
291.221
291.229
291.237
291.244
291.249
291.254
291.257
291.257
291.256
291.253
291.247
291.241
291.233
291.226
291.218
291.211
291.205
291.2
291.196
291.193
291.192
291.192
291.193
291.194
291.196
291.198
291.2
291.202
291.204
291.206
291.208
291.21
291.211
291.212
291.213
291.213
291.214
291.214
291.214
291.214
291.214
291.213
291.212
291.211
291.209
291.207
291.205
291.202
291.199
291.194
291.19
291.184
291.178
291.171
291.164
291.157
291.149
291.141
291.135
291.129
291.126
291.125
291.127
291.133
291.141
291.154
291.171
291.193
291.22
291.251
291.286
291.325
291.365
291.408
291.451
291.494
291.535
291.575
291.612
291.645
291.675
291.701
291.722
291.74
291.754
291.765
291.773
291.781
291.79
291.8
291.813
291.829
291.849
291.873
291.901
291.933
291.969
292.007
292.049
292.091
292.132
292.172
292.207
292.237
292.259
292.271
292.274
292.269
292.258
292.244
292.227
292.208
292.188
292.168
292.148
292.127
292.105
292.083
292.062
292.041
292.023
292.007
291.993
291.982
291.973
291.968
291.965
291.965
291.968
291.973
291.981
291.992
292.005
292.02
292.037
292.056
292.077
292.099
292.123
292.148
292.175
292.202
292.229
292.257
292.284
292.312
292.338
292.363
292.385
292.403
292.417
292.423
292.419
292.403
292.375
292.329
292.258
292.153
291.999
291.78
291.474
291.058
290.503
289.782
288.858
300.042
294.857
293.595
293.33
293.273
293.246
293.21
293.151
293.061
292.936
292.776
292.587
292.378
292.164
291.956
291.768
291.61
291.484
291.392
291.327
291.283
291.253
291.234
291.221
291.212
291.207
291.204
291.202
291.202
291.204
291.207
291.21
291.215
291.22
291.225
291.23
291.235
291.24
291.245
291.249
291.252
291.254
291.256
291.257
291.258
291.258
291.259
291.259
291.261
291.263
291.267
291.271
291.276
291.283
291.29
291.298
291.305
291.313
291.321
291.328
291.335
291.341
291.347
291.351
291.355
291.358
291.359
291.361
291.361
291.361
291.361
291.36
291.358
291.357
291.355
291.353
291.35
291.347
291.345
291.342
291.339
291.335
291.332
291.328
291.324
291.32
291.316
291.311
291.306
291.301
291.297
291.292
291.288
291.285
291.284
291.284
291.288
291.294
291.302
291.315
291.331
291.353
291.379
291.411
291.447
291.487
291.53
291.576
291.623
291.67
291.717
291.761
291.803
291.842
291.876
291.905
291.929
291.947
291.958
291.964
291.968
291.972
291.977
291.984
291.993
292.004
292.02
292.04
292.065
292.094
292.127
292.163
292.203
292.244
292.286
292.327
292.366
292.399
292.426
292.447
292.464
292.476
292.484
292.488
292.488
292.484
292.476
292.465
292.452
292.435
292.417
292.396
292.374
292.352
292.331
292.311
292.293
292.278
292.266
292.257
292.251
292.248
292.249
292.252
292.258
292.267
292.278
292.292
292.309
292.327
292.347
292.37
292.393
292.418
292.444
292.47
292.497
292.525
292.553
292.58
292.607
292.633
292.658
292.681
292.7
292.715
292.722
292.719
292.707
292.683
292.642
292.576
292.474
292.32
292.096
291.775
291.329
290.725
289.926
288.893
300.186
294.919
293.611
293.332
293.27
293.239
293.195
293.124
293.018
292.874
292.696
292.49
292.27
292.052
291.849
291.674
291.534
291.43
291.358
291.31
291.281
291.262
291.252
291.245
291.242
291.241
291.241
291.243
291.245
291.247
291.25
291.254
291.257
291.261
291.266
291.271
291.276
291.281
291.287
291.292
291.298
291.303
291.309
291.316
291.323
291.33
291.339
291.348
291.359
291.37
291.383
291.396
291.41
291.424
291.439
291.453
291.467
291.48
291.492
291.503
291.513
291.522
291.529
291.534
291.538
291.54
291.541
291.541
291.539
291.537
291.533
291.529
291.523
291.518
291.512
291.505
291.499
291.493
291.487
291.481
291.475
291.47
291.464
291.459
291.454
291.45
291.446
291.442
291.438
291.435
291.433
291.432
291.431
291.432
291.435
291.439
291.446
291.455
291.467
291.482
291.503
291.528
291.558
291.593
291.633
291.676
291.723
291.772
291.822
291.872
291.921
291.968
292.012
292.051
292.086
292.113
292.131
292.14
292.144
292.144
292.142
292.138
292.134
292.131
292.13
292.133
292.14
292.152
292.169
292.192
292.218
292.249
292.282
292.317
292.352
292.386
292.418
292.448
292.476
292.502
292.526
292.548
292.567
292.583
292.597
292.607
292.615
292.619
292.619
292.615
292.607
292.597
292.583
292.567
292.551
292.534
292.518
292.504
292.492
292.483
292.476
292.473
292.472
292.475
292.48
292.489
292.499
292.512
292.528
292.545
292.564
292.585
292.607
292.63
292.654
292.679
292.704
292.729
292.754
292.779
292.804
292.829
292.852
292.875
292.895
292.913
292.925
292.928
292.924
292.91
292.88
292.826
292.735
292.591
292.37
292.044
291.578
290.932
290.061
288.92
300.316
294.978
293.628
293.335
293.269
293.233
293.183
293.103
292.986
292.829
292.637
292.421
292.196
291.979
291.785
291.625
291.502
291.416
291.36
291.326
291.307
291.298
291.294
291.294
291.296
291.298
291.301
291.304
291.307
291.311
291.315
291.32
291.325
291.331
291.337
291.344
291.352
291.36
291.369
291.378
291.389
291.4
291.412
291.425
291.439
291.454
291.47
291.488
291.506
291.525
291.545
291.566
291.586
291.607
291.627
291.647
291.665
291.683
291.699
291.713
291.726
291.736
291.745
291.751
291.755
291.757
291.757
291.755
291.751
291.745
291.737
291.728
291.718
291.707
291.695
291.682
291.67
291.658
291.645
291.634
291.623
291.612
291.602
291.592
291.584
291.576
291.569
291.563
291.559
291.556
291.555
291.555
291.557
291.561
291.566
291.574
291.584
291.596
291.611
291.63
291.653
291.681
291.714
291.751
291.792
291.837
291.885
291.934
291.984
292.033
292.081
292.125
292.165
292.2
292.228
292.248
292.264
292.276
292.285
292.291
292.294
292.294
292.29
292.284
292.277
292.269
292.263
292.259
292.261
292.268
292.282
292.302
292.326
292.353
292.382
292.411
292.441
292.471
292.499
292.527
292.553
292.578
292.601
292.622
292.642
292.659
292.674
292.688
292.698
292.705
292.71
292.711
292.709
292.704
292.697
292.689
292.679
292.67
292.661
292.654
292.648
292.644
292.643
292.644
292.648
292.654
292.663
292.674
292.687
292.701
292.717
292.735
292.754
292.773
292.794
292.814
292.836
292.857
292.878
292.899
292.92
292.941
292.961
292.981
293
293.019
293.036
293.048
293.055
293.054
293.04
293.004
292.931
292.805
292.597
292.276
291.799
291.12
290.182
288.941
300.435
295.036
293.645
293.339
293.268
293.23
293.176
293.09
292.965
292.8
292.6
292.378
292.152
291.939
291.754
291.607
291.499
291.427
291.384
291.36
291.35
291.347
291.349
291.353
291.357
291.363
291.368
291.374
291.381
291.388
291.395
291.404
291.412
291.422
291.433
291.444
291.456
291.469
291.483
291.498
291.514
291.531
291.55
291.569
291.59
291.612
291.635
291.658
291.683
291.708
291.733
291.759
291.785
291.81
291.834
291.858
291.881
291.902
291.921
291.939
291.955
291.969
291.98
291.988
291.993
291.995
291.995
291.992
291.986
291.978
291.968
291.956
291.942
291.927
291.91
291.893
291.875
291.855
291.836
291.816
291.796
291.778
291.759
291.742
291.725
291.709
291.695
291.683
291.673
291.665
291.66
291.658
291.659
291.662
291.669
291.678
291.689
291.704
291.721
291.742
291.767
291.797
291.83
291.867
291.907
291.949
291.993
292.037
292.08
292.121
292.158
292.191
292.219
292.243
292.265
292.286
292.307
292.327
292.347
292.365
292.381
292.394
292.404
292.41
292.413
292.413
292.41
292.407
292.403
292.401
292.403
292.409
292.421
292.436
292.456
292.478
292.501
292.526
292.551
292.576
292.6
292.623
292.646
292.667
292.686
292.705
292.721
292.737
292.75
292.762
292.771
292.779
292.785
292.788
292.79
292.789
292.787
292.784
292.78
292.777
292.774
292.772
292.771
292.772
292.775
292.78
292.787
292.795
292.805
292.816
292.829
292.843
292.858
292.874
292.89
292.907
292.924
292.941
292.958
292.975
292.991
293.008
293.024
293.04
293.056
293.072
293.088
293.104
293.119
293.13
293.132
293.115
293.064
292.96
292.774
292.467
291.989
291.285
290.29
288.959
300.547
295.095
293.664
293.344
293.269
293.23
293.174
293.086
292.957
292.787
292.583
292.359
292.133
291.924
291.747
291.61
291.512
291.449
291.413
291.396
291.392
291.394
291.4
291.409
291.418
291.428
291.438
291.448
291.459
291.471
291.483
291.496
291.509
291.524
291.54
291.556
291.573
291.592
291.611
291.631
291.653
291.675
291.699
291.723
291.749
291.775
291.802
291.83
291.858
291.886
291.914
291.942
291.97
291.997
292.023
292.049
292.073
292.095
292.115
292.132
292.147
292.16
292.171
292.179
292.186
292.191
292.194
292.194
292.192
292.188
292.181
292.172
292.16
292.147
292.131
292.113
292.095
292.075
292.054
292.032
292.008
291.983
291.956
291.929
291.901
291.874
291.848
291.823
291.801
291.782
291.767
291.755
291.748
291.745
291.747
291.752
291.762
291.775
291.792
291.814
291.838
291.866
291.898
291.931
291.967
292.003
292.039
292.074
292.106
292.135
292.16
292.181
292.202
292.225
292.249
292.275
292.303
292.332
292.361
292.389
292.415
292.44
292.461
292.48
292.496
292.508
292.518
292.525
292.53
292.534
292.537
292.542
292.549
292.558
292.57
292.584
292.6
292.618
292.637
292.656
292.676
292.696
292.714
292.733
292.75
292.766
292.781
292.795
292.808
292.82
292.83
292.839
292.847
292.853
292.858
292.862
292.864
292.866
292.867
292.867
292.867
292.868
292.869
292.871
292.874
292.878
292.883
292.89
292.898
292.907
292.917
292.928
292.94
292.953
292.966
292.98
292.993
293.007
293.02
293.033
293.046
293.059
293.072
293.084
293.097
293.11
293.123
293.137
293.152
293.166
293.175
293.173
293.142
293.063
292.902
292.615
292.146
291.428
290.383
288.974
300.654
295.153
293.684
293.35
293.272
293.231
293.176
293.089
292.96
292.79
292.585
292.361
292.137
291.931
291.759
291.626
291.533
291.475
291.443
291.43
291.429
291.436
291.446
291.459
291.473
291.487
291.502
291.517
291.532
291.549
291.565
291.583
291.601
291.621
291.641
291.661
291.683
291.705
291.729
291.752
291.777
291.802
291.828
291.855
291.882
291.909
291.936
291.964
291.991
292.018
292.045
292.071
292.097
292.122
292.145
292.167
292.187
292.206
292.225
292.242
292.259
292.274
292.288
292.3
292.312
292.321
292.329
292.335
292.339
292.342
292.342
292.34
292.335
292.328
292.319
292.307
292.292
292.275
292.256
292.236
292.214
292.191
292.166
292.139
292.11
292.079
292.046
292.012
291.978
291.944
291.912
291.884
291.859
291.84
291.827
291.82
291.82
291.825
291.837
291.853
291.873
291.897
291.924
291.952
291.981
292.01
292.038
292.064
292.087
292.107
292.126
292.147
292.171
292.198
292.229
292.263
292.299
292.335
292.372
292.407
292.441
292.473
292.501
292.528
292.551
292.572
292.589
292.605
292.618
292.63
292.64
292.65
292.66
292.67
292.681
292.693
292.706
292.72
292.735
292.75
292.766
292.782
292.797
292.812
292.827
292.84
292.853
292.865
292.877
292.887
292.896
292.904
292.912
292.918
292.924
292.928
292.932
292.936
292.938
292.941
292.943
292.945
292.947
292.95
292.953
292.958
292.963
292.969
292.976
292.983
292.992
293.001
293.01
293.021
293.031
293.042
293.053
293.064
293.074
293.085
293.095
293.105
293.115
293.125
293.134
293.145
293.155
293.167
293.178
293.19
293.199
293.199
293.179
293.122
292.987
292.725
292.27
291.546
290.462
288.986
300.757
295.213
293.706
293.357
293.275
293.235
293.182
293.098
292.973
292.806
292.603
292.381
292.159
291.955
291.784
291.652
291.56
291.502
291.471
291.459
291.46
291.469
291.483
291.499
291.517
291.535
291.554
291.573
291.592
291.612
291.633
291.653
291.675
291.697
291.719
291.742
291.765
291.789
291.813
291.838
291.862
291.887
291.912
291.937
291.962
291.986
292.011
292.035
292.06
292.084
292.108
292.131
292.153
292.176
292.199
292.221
292.243
292.264
292.285
292.305
292.325
292.343
292.361
292.378
292.393
292.407
292.42
292.431
292.44
292.448
292.455
292.459
292.461
292.462
292.46
292.456
292.449
292.44
292.427
292.412
292.394
292.374
292.353
292.329
292.303
292.275
292.243
292.209
292.172
292.133
292.092
292.051
292.012
291.975
291.943
291.918
291.9
291.89
291.887
291.891
291.9
291.914
291.932
291.952
291.974
291.995
292.016
292.037
292.056
292.076
292.1
292.127
292.159
292.195
292.234
292.276
292.319
292.362
292.404
292.444
292.482
292.518
292.551
292.581
292.608
292.633
292.655
292.674
292.692
292.708
292.723
292.737
292.75
292.762
292.775
292.788
292.801
292.814
292.827
292.841
292.854
292.868
292.881
292.893
292.905
292.917
292.928
292.938
292.948
292.957
292.965
292.972
292.978
292.984
292.989
292.994
292.998
293.001
293.004
293.007
293.01
293.013
293.016
293.019
293.023
293.027
293.032
293.037
293.043
293.049
293.056
293.064
293.072
293.08
293.088
293.097
293.106
293.114
293.122
293.13
293.138
293.146
293.154
293.161
293.169
293.176
293.184
293.193
293.202
293.21
293.216
293.214
293.195
293.145
293.036
292.8
292.365
291.642
290.528
288.997
300.857
295.274
293.729
293.365
293.279
293.24
293.191
293.112
292.994
292.833
292.636
292.418
292.197
291.993
291.821
291.687
291.591
291.53
291.497
291.484
291.485
291.495
291.51
291.528
291.548
291.569
291.59
291.612
291.633
291.655
291.677
291.699
291.721
291.744
291.766
291.788
291.811
291.833
291.855
291.877
291.899
291.921
291.943
291.965
291.986
292.008
292.03
292.053
292.076
292.099
292.123
292.147
292.172
292.198
292.223
292.248
292.273
292.298
292.323
292.347
292.37
292.392
292.413
292.433
292.452
292.47
292.486
292.502
292.515
292.527
292.538
292.547
292.554
292.56
292.564
292.566
292.566
292.564
292.559
292.552
292.542
292.528
292.512
292.494
292.473
292.45
292.423
292.394
292.361
292.325
292.285
292.243
292.198
292.153
292.11
292.07
292.034
292.005
291.984
291.969
291.962
291.96
291.965
291.973
291.985
291.998
292.013
292.031
292.053
292.079
292.11
292.147
292.187
292.231
292.277
292.325
292.372
292.419
292.464
292.507
292.546
292.583
292.617
292.648
292.676
292.702
292.726
292.747
292.766
292.784
292.8
292.816
292.831
292.845
292.858
292.871
292.884
292.897
292.91
292.922
292.934
292.946
292.957
292.968
292.979
292.989
292.998
293.007
293.015
293.023
293.03
293.036
293.042
293.047
293.051
293.055
293.059
293.062
293.065
293.068
293.071
293.074
293.077
293.08
293.084
293.087
293.092
293.096
293.101
293.106
293.112
293.118
293.125
293.131
293.138
293.144
293.151
293.157
293.163
293.17
293.175
293.181
293.187
293.192
293.198
293.204
293.209
293.216
293.222
293.227
293.229
293.223
293.203
293.155
293.055
292.847
292.435
291.719
290.582
289.007
300.955
295.337
293.754
293.374
293.284
293.247
293.202
293.13
293.021
292.869
292.681
292.468
292.25
292.046
291.87
291.73
291.629
291.561
291.523
291.505
291.504
291.512
291.527
291.546
291.566
291.588
291.61
291.633
291.655
291.677
291.698
291.719
291.74
291.761
291.781
291.801
291.82
291.839
291.858
291.877
291.896
291.915
291.934
291.954
291.975
291.996
292.019
292.043
292.068
292.094
292.122
292.15
292.178
292.208
292.237
292.266
292.296
292.324
292.352
292.38
292.407
292.432
292.457
292.48
292.502
292.523
292.542
292.56
292.576
292.592
292.605
292.617
292.628
292.637
292.645
292.651
292.656
292.658
292.66
292.659
292.656
292.65
292.642
292.63
292.615
292.598
292.579
292.556
292.53
292.501
292.468
292.432
292.392
292.349
292.305
292.261
292.218
292.178
292.143
292.113
292.089
292.072
292.061
292.056
292.056
292.061
292.071
292.089
292.114
292.145
292.181
292.223
292.268
292.315
292.364
292.412
292.46
292.507
292.551
292.592
292.63
292.666
292.698
292.728
292.755
292.78
292.802
292.823
292.842
292.86
292.876
292.892
292.907
292.92
292.934
292.947
292.959
292.971
292.983
292.994
293.005
293.015
293.025
293.034
293.043
293.052
293.06
293.067
293.074
293.081
293.087
293.092
293.097
293.102
293.106
293.11
293.113
293.116
293.119
293.121
293.124
293.127
293.129
293.132
293.135
293.139
293.142
293.146
293.15
293.154
293.159
293.163
293.168
293.173
293.178
293.183
293.188
293.192
293.197
293.201
293.206
293.21
293.214
293.218
293.222
293.226
293.23
293.234
293.237
293.24
293.239
293.23
293.208
293.16
293.063
292.869
292.483
291.778
290.627
289.016
301.052
295.401
293.78
293.383
293.289
293.253
293.214
293.151
293.052
292.913
292.735
292.531
292.317
292.112
291.931
291.784
291.673
291.597
291.55
291.526
291.518
291.523
291.535
291.553
291.573
291.594
291.615
291.637
291.658
291.678
291.698
291.717
291.736
291.754
291.771
291.787
291.803
291.819
291.835
291.851
291.868
291.886
291.905
291.925
291.947
291.971
291.997
292.024
292.054
292.085
292.116
292.149
292.182
292.216
292.25
292.283
292.316
292.349
292.381
292.412
292.441
292.47
292.497
292.523
292.548
292.571
292.593
292.613
292.631
292.649
292.664
292.679
292.692
292.703
292.713
292.722
292.729
292.735
292.74
292.743
292.745
292.745
292.743
292.738
292.731
292.72
292.707
292.691
292.673
292.652
292.628
292.6
292.569
292.535
292.498
292.459
292.42
292.38
292.342
292.307
292.276
292.249
292.229
292.214
292.205
292.203
292.211
292.227
292.251
292.281
292.316
292.355
292.398
292.442
292.487
292.532
292.575
292.617
292.656
292.693
292.727
292.758
292.787
292.814
292.838
292.86
292.881
292.9
292.917
292.933
292.949
292.963
292.977
292.99
293.002
293.014
293.025
293.036
293.046
293.056
293.065
293.074
293.083
293.091
293.098
293.106
293.112
293.119
293.125
293.13
293.135
293.14
293.144
293.148
293.151
293.155
293.158
293.16
293.163
293.165
293.168
293.17
293.172
293.175
293.177
293.18
293.183
293.186
293.189
293.192
293.195
293.199
293.202
293.206
293.209
293.213
293.216
293.22
293.223
293.226
293.229
293.232
293.235
293.237
293.24
293.243
293.245
293.248
293.249
293.249
293.246
293.235
293.211
293.163
293.068
292.879
292.513
291.824
290.664
289.025
301.147
295.466
293.808
293.393
293.294
293.26
293.226
293.172
293.085
292.96
292.797
292.604
292.396
292.191
292.006
291.85
291.728
291.64
291.582
291.548
291.533
291.531
291.539
291.552
291.57
291.589
291.608
291.628
291.647
291.665
291.683
291.699
291.715
291.729
291.743
291.757
291.77
291.784
291.798
291.814
291.83
291.848
291.869
291.891
291.916
291.944
291.975
292.007
292.041
292.076
292.113
292.15
292.188
292.227
292.265
292.302
292.339
292.376
292.411
292.445
292.478
292.509
292.539
292.567
292.593
292.618
292.642
292.663
292.684
292.702
292.72
292.735
292.75
292.763
292.774
292.785
292.794
292.802
292.808
292.814
292.818
292.821
292.823
292.823
292.821
292.818
292.811
292.801
292.79
292.776
292.76
292.741
292.719
292.695
292.668
292.638
292.607
292.575
292.543
292.512
292.483
292.456
292.434
292.417
292.406
292.403
292.409
292.421
292.439
292.464
292.492
292.524
292.559
292.595
292.632
292.668
292.703
292.737
292.769
292.8
292.828
292.854
292.878
292.9
292.92
292.939
292.957
292.973
292.988
293.002
293.015
293.028
293.04
293.051
293.062
293.072
293.082
293.091
293.1
293.108
293.116
293.124
293.131
293.138
293.144
293.15
293.156
293.161
293.166
293.17
293.174
293.178
293.182
293.185
293.188
293.19
293.193
293.195
293.197
293.199
293.201
293.203
293.205
293.207
293.209
293.211
293.214
293.216
293.218
293.22
293.223
293.225
293.228
293.23
293.233
293.235
293.238
293.24
293.242
293.244
293.246
293.248
293.25
293.252
293.254
293.255
293.257
293.258
293.258
293.257
293.251
293.239
293.214
293.166
293.072
292.887
292.528
291.859
290.696
289.034
301.241
295.533
293.837
293.404
293.299
293.266
293.238
293.192
293.118
293.009
292.862
292.683
292.485
292.283
292.095
291.93
291.797
291.695
291.624
291.577
291.551
291.54
291.541
291.549
291.561
291.577
291.594
291.61
291.627
291.643
291.657
291.671
291.684
291.696
291.707
291.719
291.731
291.743
291.757
291.772
291.79
291.81
291.833
291.86
291.889
291.922
291.957
291.994
292.033
292.074
292.115
292.158
292.2
292.243
292.285
292.327
292.368
292.407
292.445
292.482
292.517
292.551
292.582
292.612
292.64
292.666
292.691
292.714
292.735
292.755
292.773
292.789
292.804
292.818
292.831
292.842
292.852
292.861
292.869
292.876
292.881
292.886
292.89
292.892
292.894
292.894
292.893
292.889
292.883
292.875
292.865
292.854
292.84
292.824
292.806
292.787
292.765
292.743
292.719
292.696
292.674
292.653
292.635
292.622
292.614
292.613
292.616
292.624
292.637
292.654
292.675
292.698
292.723
292.749
292.776
292.803
292.829
292.855
292.879
292.902
292.924
292.944
292.963
292.98
292.996
293.012
293.026
293.039
293.051
293.062
293.073
293.084
293.094
293.103
293.112
293.121
293.129
293.137
293.144
293.151
293.158
293.164
293.17
293.176
293.181
293.186
293.19
293.194
293.198
293.202
293.205
293.208
293.211
293.214
293.216
293.218
293.22
293.222
293.224
293.225
293.227
293.228
293.23
293.231
293.233
293.235
293.236
293.238
293.24
293.241
293.243
293.245
293.246
293.248
293.25
293.251
293.253
293.254
293.256
293.257
293.259
293.26
293.261
293.263
293.264
293.264
293.265
293.265
293.265
293.262
293.255
293.242
293.217
293.169
293.076
292.893
292.54
291.881
290.723
289.043
301.333
295.6
293.867
293.415
293.305
293.272
293.248
293.211
293.15
293.057
292.929
292.767
292.581
292.386
292.197
292.026
291.881
291.765
291.678
291.617
291.578
291.556
291.547
291.547
291.553
291.563
291.576
291.589
291.602
291.615
291.627
291.638
291.649
291.659
291.669
291.679
291.69
291.703
291.717
291.734
291.754
291.777
291.804
291.834
291.869
291.906
291.946
291.989
292.033
292.079
292.125
292.173
292.22
292.267
292.313
292.358
292.402
292.445
292.486
292.524
292.561
292.596
292.629
292.66
292.689
292.716
292.741
292.764
292.786
292.806
292.824
292.841
292.857
292.871
292.884
292.896
292.906
292.916
292.924
292.932
292.938
292.944
292.948
292.952
292.955
292.957
292.958
292.958
292.957
292.955
292.95
292.943
292.935
292.926
292.915
292.903
292.89
292.875
292.86
292.845
292.831
292.818
292.807
292.799
292.796
292.795
292.797
292.802
292.811
292.822
292.835
292.851
292.868
292.886
292.904
292.923
292.941
292.959
292.977