/*--------------------------------*- C++ -*----------------------------------*\
  =========                 |
  \\      /  F ield         | OpenFOAM: The Open Source CFD Toolbox
   \\    /   O peration     | Website:  https://openfoam.org
    \\  /    A nd           | Version:  11
     \\/     M anipulation  |
\*---------------------------------------------------------------------------*/
FoamFile
{
    format      ascii;
    class       volVectorField;
    location    "19";
    object      U;
}
// * * * * * * * * * * * * * * * * * * * * * * * * * * * * * * * * * * * * * //

dimensions      [0 1 -1 0 0 0 0];

internalField   nonuniform List<vector> 
40000
(
(-0.0115331 0.00806237 0)
(-0.0163006 -0.000583985 0)
(-0.0138912 -0.00199767 0)
(-0.0108838 -0.00152089 0)
(-0.00888301 -0.000872078 0)
(-0.0079851 -0.000416685 0)
(-0.00787939 -0.000132162 0)
(-0.00833395 4.16763e-05 0)
(-0.00906168 0.000125492 0)
(-0.00996286 0.000159049 0)
(-0.0109677 0.000167421 0)
(-0.0120264 0.000162188 0)
(-0.0130929 0.000148086 0)
(-0.014116 0.000126293 0)
(-0.0150392 9.6244e-05 0)
(-0.0158058 5.73914e-05 0)
(-0.016369 1.08606e-05 0)
(-0.0166998 -3.9833e-05 0)
(-0.01679 -8.73168e-05 0)
(-0.0166676 -0.0001156 0)
(-0.0163435 -0.000140687 0)
(-0.0158288 -0.000167652 0)
(-0.015153 -0.000195121 0)
(-0.0143515 -0.000219695 0)
(-0.0134631 -0.000238231 0)
(-0.0125258 -0.000248837 0)
(-0.0115744 -0.000250867 0)
(-0.0106382 -0.000244609 0)
(-0.00974112 -0.000230918 0)
(-0.00890186 -0.000210915 0)
(-0.00813472 -0.000185773 0)
(-0.00745047 -0.000156605 0)
(-0.0068571 -0.000124406 0)
(-0.00636042 -9.00382e-05 0)
(-0.0059646 -5.41578e-05 0)
(-0.00567257 -1.71563e-05 0)
(-0.0054863 2.10226e-05 0)
(-0.00540451 6.11256e-05 0)
(-0.00542737 0.000100422 0)
(-0.00556779 0.000134333 0)
(-0.00582239 0.000163824 0)
(-0.00618209 0.000188348 0)
(-0.00663487 0.000206712 0)
(-0.0071655 0.000218208 0)
(-0.00775598 0.000222415 0)
(-0.0083867 0.000219226 0)
(-0.00903789 0.000208875 0)
(-0.0096908 0.000192141 0)
(-0.0103285 0.000170322 0)
(-0.0109368 0.000145054 0)
(-0.0115047 0.000118086 0)
(-0.0120247 9.10738e-05 0)
(-0.012493 6.5433e-05 0)
(-0.012909 4.22445e-05 0)
(-0.0132746 2.22259e-05 0)
(-0.0135941 5.73897e-06 0)
(-0.0138727 -7.16697e-06 0)
(-0.0141167 -1.66869e-05 0)
(-0.0143321 -2.31907e-05 0)
(-0.0145247 -2.71428e-05 0)
(-0.0146995 -2.90309e-05 0)
(-0.0148607 -2.93258e-05 0)
(-0.0150116 -2.84424e-05 0)
(-0.0151548 -2.67184e-05 0)
(-0.0152923 -2.44182e-05 0)
(-0.0154254 -2.17262e-05 0)
(-0.0155551 -1.87611e-05 0)
(-0.0156823 -1.56064e-05 0)
(-0.0158074 -1.23158e-05 0)
(-0.0159307 -8.93453e-06 0)
(-0.0160522 -5.52525e-06 0)
(-0.0161715 -2.18071e-06 0)
(-0.0162874 9.38218e-07 0)
(-0.0163983 3.57836e-06 0)
(-0.0165013 5.38376e-06 0)
(-0.0165923 5.81077e-06 0)
(-0.0166666 4.01227e-06 0)
(-0.0167192 -1.0236e-06 0)
(-0.0167454 -9.74168e-06 0)
(-0.0167405 -2.00439e-05 0)
(-0.0167024 -2.73403e-05 0)
(-0.0166152 -3.49086e-05 0)
(-0.0164655 -4.44738e-05 0)
(-0.0162384 -5.72521e-05 0)
(-0.0159184 -7.43037e-05 0)
(-0.015491 -9.6501e-05 0)
(-0.0149436 -0.000124335 0)
(-0.0142673 -0.000157682 0)
(-0.013458 -0.000195587 0)
(-0.0125182 -0.000236111 0)
(-0.0114587 -0.000276294 0)
(-0.0102999 -0.000312194 0)
(-0.00907298 -0.00033888 0)
(-0.00781999 -0.000350451 0)
(-0.0065932 -0.000340684 0)
(-0.00545307 -0.000303757 0)
(-0.0044643 -0.000235064 0)
(-0.00368905 -0.000132502 0)
(-0.00317604 1.3338e-06 0)
(-0.00293821 0.000151988 0)
(-0.00299352 0.00027044 0)
(-0.00338554 0.00033605 0)
(-0.0040484 0.000358888 0)
(-0.00489761 0.000344875 0)
(-0.00584783 0.000301964 0)
(-0.00683125 0.000237827 0)
(-0.00781023 0.000162864 0)
(-0.00877192 9.12351e-05 0)
(-0.00971853 3.59271e-05 0)
(-0.0106581 4.77394e-06 0)
(-0.0115947 -1.33597e-06 0)
(-0.0125221 1.19583e-05 0)
(-0.0134215 3.49797e-05 0)
(-0.014264 5.7472e-05 0)
(-0.0150175 7.15625e-05 0)
(-0.0156532 7.33334e-05 0)
(-0.0161516 6.29372e-05 0)
(-0.0165063 4.37225e-05 0)
(-0.016725 2.09855e-05 0)
(-0.0168276 7.77497e-07 0)
(-0.0168391 -1.30986e-05 0)
(-0.0168 -2.74111e-05 0)
(-0.0167193 -5.72522e-05 0)
(-0.0166095 -0.000104851 0)
(-0.0164951 -0.000163435 0)
(-0.0164135 -0.00021261 0)
(-0.0164181 -0.000222494 0)
(-0.0166089 -0.000189037 0)
(-0.0170184 -0.000130286 0)
(-0.0176622 -5.69886e-05 0)
(-0.0185335 2.41135e-05 0)
(-0.0196085 0.000108435 0)
(-0.0208494 0.000191817 0)
(-0.022207 0.000269263 0)
(-0.0236249 0.000334417 0)
(-0.0250432 0.000381018 0)
(-0.0264037 0.000404697 0)
(-0.027655 0.000404083 0)
(-0.0287566 0.000381041 0)
(-0.0296828 0.00034009 0)
(-0.0304224 0.000287117 0)
(-0.0309783 0.000228198 0)
(-0.0313641 0.000168814 0)
(-0.031601 0.000113396 0)
(-0.0317129 6.75775e-05 0)
(-0.0317237 4.07517e-05 0)
(-0.0316731 2.93938e-05 0)
(-0.0315516 5.87601e-06 0)
(-0.0313624 -3.47277e-05 0)
(-0.0311139 -8.71683e-05 0)
(-0.0308184 -0.000144172 0)
(-0.0304951 -0.000197735 0)
(-0.0301719 -0.000238918 0)
(-0.0298821 -0.000257534 0)
(-0.0296561 -0.000243147 0)
(-0.0295268 -0.000192949 0)
(-0.0295902 -0.000131568 0)
(-0.0298191 -8.21806e-05 0)
(-0.0301941 -3.7844e-05 0)
(-0.0307324 1.18499e-05 0)
(-0.0314472 7.08542e-05 0)
(-0.0323522 0.000140499 0)
(-0.0334608 0.00022152 0)
(-0.0347856 0.000314394 0)
(-0.036338 0.000419348 0)
(-0.038128 0.000536327 0)
(-0.040164 0.000664967 0)
(-0.0424519 0.000804592 0)
(-0.0449957 0.000954225 0)
(-0.0477969 0.00111264 0)
(-0.0508542 0.00127846 0)
(-0.0541642 0.0014502 0)
(-0.0577205 0.00162633 0)
(-0.0615141 0.00180525 0)
(-0.065533 0.00198524 0)
(-0.069762 0.00216444 0)
(-0.0741824 0.00234066 0)
(-0.0787708 0.00251131 0)
(-0.0834988 0.00267321 0)
(-0.0883317 0.00282242 0)
(-0.0932266 0.00295396 0)
(-0.0981308 0.00306148 0)
(-0.102979 0.00313681 0)
(-0.107692 0.00316931 0)
(-0.11217 0.00314486 0)
(-0.116289 0.0030438 0)
(-0.119892 0.00283793 0)
(-0.122771 0.00248782 0)
(-0.124643 0.00193661 0)
(-0.125158 0.0010907 0)
(-0.123909 -0.000164583 0)
(-0.120258 -0.00180672 0)
(-0.113626 -0.00383592 0)
(-0.103389 -0.00625182 0)
(-0.0890072 -0.00900206 0)
(-0.0703611 -0.0118916 0)
(-0.0483265 -0.0143363 0)
(-0.0250255 -0.0147107 0)
(-0.00184245 -0.00864629 0)
(0.0079677 0.00243151 0)
(-0.00968687 0.0207523 0)
(-0.0154917 0.00168758 0)
(-0.0167076 -0.00359405 0)
(-0.0165465 -0.0031188 0)
(-0.0164411 -0.00166226 0)
(-0.0169218 -0.000384042 0)
(-0.0180481 0.00057069 0)
(-0.0195828 0.00119877 0)
(-0.0215209 0.00159962 0)
(-0.0237698 0.00186218 0)
(-0.0262414 0.00202939 0)
(-0.0288295 0.0021105 0)
(-0.0314058 0.00209606 0)
(-0.0338279 0.00197238 0)
(-0.0359574 0.00173413 0)
(-0.0376782 0.00139218 0)
(-0.0389119 0.000974564 0)
(-0.0396199 0.000522025 0)
(-0.0397973 7.92629e-05 0)
(-0.0395039 -0.000327226 0)
(-0.0387984 -0.000704916 0)
(-0.0377549 -0.00104016 0)
(-0.0364672 -0.00131312 0)
(-0.0350261 -0.00151275 0)
(-0.0335097 -0.00163833 0)
(-0.0319796 -0.0016965 0)
(-0.0304818 -0.00169751 0)
(-0.0290487 -0.00165241 0)
(-0.0277028 -0.00157135 0)
(-0.0264597 -0.00146283 0)
(-0.0253301 -0.00133362 0)
(-0.0243217 -0.00118885 0)
(-0.0234401 -0.00103229 0)
(-0.0226899 -0.000866705 0)
(-0.0220746 -0.000694144 0)
(-0.0215974 -0.000516601 0)
(-0.0212611 -0.000336148 0)
(-0.0210705 -0.000153044 0)
(-0.021032 3.57226e-05 0)
(-0.0211697 0.00022826 0)
(-0.0214898 0.000417878 0)
(-0.0219889 0.000596539 0)
(-0.0226569 0.000757531 0)
(-0.023478 0.000895069 0)
(-0.0244314 0.00100459 0)
(-0.025493 0.00108293 0)
(-0.0266357 0.00112869 0)
(-0.0278316 0.00114253 0)
(-0.0290535 0.00112708 0)
(-0.0302766 0.00108662 0)
(-0.0314796 0.00102656 0)
(-0.0326454 0.000952847 0)
(-0.0337617 0.00087145 0)
(-0.0348201 0.00078782 0)
(-0.0358166 0.000706543 0)
(-0.0367502 0.000631087 0)
(-0.0376221 0.000563721 0)
(-0.0384352 0.000505574 0)
(-0.0391932 0.000456783 0)
(-0.0399001 0.000416754 0)
(-0.0405596 0.00038443 0)
(-0.0411754 0.000358526 0)
(-0.0417505 0.000337753 0)
(-0.0422877 0.000320956 0)
(-0.0427893 0.000307172 0)
(-0.0432576 0.00029566 0)
(-0.0436943 0.00028586 0)
(-0.044101 0.000277303 0)
(-0.0444789 0.000269558 0)
(-0.0448287 0.000262151 0)
(-0.0451508 0.00025443 0)
(-0.0454446 0.000245516 0)
(-0.0457088 0.000234202 0)
(-0.0459409 0.000218884 0)
(-0.0461373 0.000197683 0)
(-0.0462934 0.000168857 0)
(-0.0464033 0.000131847 0)
(-0.0464605 8.85528e-05 0)
(-0.0464579 4.2306e-05 0)
(-0.0463913 -8.72138e-06 0)
(-0.0462324 -7.76351e-05 0)
(-0.0459633 -0.000172836 0)
(-0.0455637 -0.000297031 0)
(-0.0450155 -0.000450388 0)
(-0.0443038 -0.000631159 0)
(-0.0434184 -0.00083565 0)
(-0.0423546 -0.00105807 0)
(-0.041114 -0.00129043 0)
(-0.0397059 -0.00152259 0)
(-0.0381472 -0.00174236 0)
(-0.0364637 -0.00193571 0)
(-0.0346896 -0.00208712 0)
(-0.0328677 -0.00218013 0)
(-0.0310495 -0.00219826 0)
(-0.0292937 -0.00212673 0)
(-0.0276643 -0.00195494 0)
(-0.0262278 -0.00168069 0)
(-0.0250498 -0.00131596 0)
(-0.0241938 -0.00088704 0)
(-0.0237225 -0.000411702 0)
(-0.0237208 0.000109689 0)
(-0.0243216 0.000641905 0)
(-0.0254522 0.00110177 0)
(-0.0270381 0.00144898 0)
(-0.0290008 0.00168361 0)
(-0.0312615 0.00182817 0)
(-0.0337385 0.00191471 0)
(-0.0363529 0.00197143 0)
(-0.0390255 0.00201194 0)
(-0.0416759 0.00203353 0)
(-0.0442266 0.00202257 0)
(-0.0466084 0.00196308 0)
(-0.0487656 0.0018442 0)
(-0.0506577 0.00166427 0)
(-0.0522605 0.00143141 0)
(-0.0535656 0.00116171 0)
(-0.05458 0.00087616 0)
(-0.0553253 0.000597475 0)
(-0.0558367 0.000347114 0)
(-0.0561611 0.0001428 0)
(-0.0563538 -4.53579e-06 0)
(-0.0564773 -9.41828e-05 0)
(-0.0566272 -0.000128561 0)
(-0.056886 -0.000103526 0)
(-0.0573217 -1.07723e-05 0)
(-0.0579812 0.000165204 0)
(-0.0588691 0.000433806 0)
(-0.0599652 0.000775028 0)
(-0.0612909 0.00115412 0)
(-0.0628502 0.00153743 0)
(-0.0646253 0.00189309 0)
(-0.066576 0.00219314 0)
(-0.0686444 0.00241482 0)
(-0.0707614 0.00254178 0)
(-0.0728531 0.00256561 0)
(-0.074848 0.00248727 0)
(-0.0766834 0.00231686 0)
(-0.0783096 0.00207187 0)
(-0.0796922 0.00177481 0)
(-0.0808131 0.00145064 0)
(-0.0816704 0.0011234 0)
(-0.0822756 0.000813306 0)
(-0.0826515 0.000535438 0)
(-0.082827 0.000298897 0)
(-0.0828343 0.000105796 0)
(-0.0827159 -5.47043e-05 0)
(-0.0824819 -0.000194508 0)
(-0.0821755 -0.000316774 0)
(-0.0818348 -0.000412591 0)
(-0.0814959 -0.000474719 0)
(-0.0811911 -0.000497346 0)
(-0.0809487 -0.000474388 0)
(-0.080794 -0.000399978 0)
(-0.0807488 -0.000270566 0)
(-0.080832 -8.88347e-05 0)
(-0.0810677 0.000132327 0)
(-0.0814053 0.000372766 0)
(-0.081892 0.00062361 0)
(-0.0825576 0.000889065 0)
(-0.0834109 0.00117284 0)
(-0.08446 0.00147548 0)
(-0.0857097 0.0017959 0)
(-0.0871625 0.00213217 0)
(-0.0888185 0.00248184 0)
(-0.0906756 0.00284205 0)
(-0.0927293 0.00320962 0)
(-0.0949731 0.00358111 0)
(-0.0973981 0.00395288 0)
(-0.0999934 0.00432119 0)
(-0.102746 0.0046822 0)
(-0.105642 0.00503208 0)
(-0.108663 0.00536697 0)
(-0.111792 0.00568297 0)
(-0.115009 0.005976 0)
(-0.118291 0.00624156 0)
(-0.121615 0.00647457 0)
(-0.124954 0.0066691 0)
(-0.128277 0.00681809 0)
(-0.131552 0.00691291 0)
(-0.134739 0.00694295 0)
(-0.137793 0.00689501 0)
(-0.140659 0.00675259 0)
(-0.143273 0.00649499 0)
(-0.145556 0.00609622 0)
(-0.147411 0.00552328 0)
(-0.148723 0.00473241 0)
(-0.149341 0.00366352 0)
(-0.149073 0.00223692 0)
(-0.147668 0.000355398 0)
(-0.144868 -0.00209412 0)
(-0.140427 -0.00517829 0)
(-0.134099 -0.0089926 0)
(-0.125431 -0.0135971 0)
(-0.1139 -0.0189891 0)
(-0.0990298 -0.0250087 0)
(-0.0806501 -0.0311439 0)
(-0.0593079 -0.0360743 0)
(-0.0366189 -0.0367172 0)
(-0.0152106 -0.0268327 0)
(0.00507559 0.00497785 0)
(-0.0077558 0.0323062 0)
(-0.0133771 0.00728473 0)
(-0.0167687 -0.00181468 0)
(-0.0187644 -0.00212203 0)
(-0.0204996 -0.000496312 0)
(-0.0224709 0.00120294 0)
(-0.024693 0.00253154 0)
(-0.0273058 0.00353563 0)
(-0.0302897 0.00429398 0)
(-0.033566 0.00483966 0)
(-0.0370009 0.00516713 0)
(-0.0404172 0.00524732 0)
(-0.0436197 0.00505171 0)
(-0.0464254 0.00457404 0)
(-0.0486887 0.00384118 0)
(-0.0503167 0.00291168 0)
(-0.0512727 0.00186578 0)
(-0.0515713 0.000791896 0)
(-0.0512774 -0.000232269 0)
(-0.0504741 -0.00115894 0)
(-0.0492946 -0.00193443 0)
(-0.0478975 -0.00252869 0)
(-0.0464054 -0.00293744 0)
(-0.0449076 -0.00317723 0)
(-0.0434624 -0.0032755 0)
(-0.0421046 -0.00326214 0)
(-0.0408534 -0.00316449 0)
(-0.0397187 -0.00300503 0)
(-0.038705 -0.00280097 0)
(-0.0378147 -0.00256469 0)
(-0.0370491 -0.00230481 0)
(-0.0364096 -0.00202731 0)
(-0.0358983 -0.0017365 0)
(-0.035518 -0.00143677 0)
(-0.0352735 -0.00113208 0)
(-0.0351721 -0.000824249 0)
(-0.0352248 -0.000507214 0)
(-0.0354547 -0.000164511 0)
(-0.0359143 0.00021056 0)
(-0.0365592 0.000601363 0)
(-0.0373722 0.000987983 0)
(-0.0383414 0.00135462 0)
(-0.0394517 0.00168788 0)
(-0.0406856 0.00197647 0)
(-0.0420235 0.00221168 0)
(-0.0434441 0.00238809 0)
(-0.0449252 0.00250383 0)
(-0.0464452 0.00256055 0)
(-0.0479835 0.0025631 0)
(-0.0495215 0.00251889 0)
(-0.051043 0.00243707 0)
(-0.0525343 0.00232754 0)
(-0.0539845 0.00220001 0)
(-0.0553843 0.00206324 0)
(-0.0567269 0.00192442 0)
(-0.0580067 0.00178902 0)
(-0.0592195 0.00166063 0)
(-0.0603624 0.00154126 0)
(-0.0614334 0.00143159 0)
(-0.0624317 0.00133138 0)
(-0.0633571 0.00123986 0)
(-0.0642106 0.00115602 0)
(-0.0649935 0.00107883 0)
(-0.065708 0.00100737 0)
(-0.0663565 0.000940855 0)
(-0.0669416 0.000878609 0)
(-0.0674661 0.000820036 0)
(-0.0679324 0.000764498 0)
(-0.068343 0.000711206 0)
(-0.0686995 0.00065917 0)
(-0.0690031 0.000607088 0)
(-0.0692543 0.000553244 0)
(-0.0694524 0.000495472 0)
(-0.0695958 0.000431159 0)
(-0.0696813 0.000357714 0)
(-0.0697042 0.000273451 0)
(-0.0696582 0.000177067 0)
(-0.0695385 6.38635e-05 0)
(-0.0693317 -7.53129e-05 0)
(-0.0690013 -0.000248927 0)
(-0.0685437 -0.000463625 0)
(-0.0679536 -0.000718898 0)
(-0.0672277 -0.00101264 0)
(-0.0663654 -0.00134088 0)
(-0.0653683 -0.00169741 0)
(-0.0642412 -0.00207362 0)
(-0.0629925 -0.00245842 0)
(-0.0616351 -0.00283815 0)
(-0.0601865 -0.00319669 0)
(-0.0586702 -0.00351555 0)
(-0.057115 -0.00377424 0)
(-0.0555564 -0.00395074 0)
(-0.0540365 -0.00402243 0)
(-0.0526038 -0.00396738 0)
(-0.0513134 -0.00376606 0)
(-0.0502276 -0.00340374 0)
(-0.0494154 -0.00287246 0)
(-0.0489496 -0.00216829 0)
(-0.0489013 -0.00128197 0)
(-0.0493875 -0.000210735 0)
(-0.0505261 0.00096827 0)
(-0.0519839 0.00207691 0)
(-0.0538022 0.00301907 0)
(-0.0559809 0.00377357 0)
(-0.0584934 0.00434808 0)
(-0.0612833 0.00476102 0)
(-0.0642698 0.00502989 0)
(-0.0673586 0.00516662 0)
(-0.0704526 0.00517787 0)
(-0.073461 0.00506743 0)
(-0.076304 0.00483951 0)
(-0.0789169 0.00450175 0)
(-0.0812517 0.00406722 0)
(-0.0832777 0.00355536 0)
(-0.0849805 0.0029919 0)
(-0.0863618 0.00240772 0)
(-0.0874372 0.00183674 0)
(-0.0882353 0.00131341 0)
(-0.0887957 0.000869842 0)
(-0.0891671 0.000533274 0)
(-0.0894062 0.000323816 0)
(-0.0895755 0.000251296 0)
(-0.0897413 0.000314448 0)
(-0.0899707 0.000500984 0)
(-0.0903203 0.000794671 0)
(-0.0908328 0.00118058 0)
(-0.0915352 0.00164578 0)
(-0.0924356 0.00217532 0)
(-0.0935276 0.00273699 0)
(-0.0947943 0.00328404 0)
(-0.0962074 0.00376822 0)
(-0.0977258 0.00414726 0)
(-0.0992968 0.0043888 0)
(-0.100861 0.00447289 0)
(-0.102356 0.00439322 0)
(-0.103726 0.00415739 0)
(-0.104925 0.00378603 0)
(-0.10592 0.00330983 0)
(-0.106693 0.00276569 0)
(-0.107243 0.00219313 0)
(-0.107582 0.00162843 0)
(-0.107731 0.00109985 0)
(-0.107719 0.000628174 0)
(-0.107577 0.00022634 0)
(-0.107342 -0.000104169 0)
(-0.107039 -0.000361601 0)
(-0.106722 -0.000547088 0)
(-0.106432 -0.000663746 0)
(-0.106189 -0.000720664 0)
(-0.106002 -0.000723746 0)
(-0.105878 -0.000673901 0)
(-0.105818 -0.000569243 0)
(-0.105825 -0.000407745 0)
(-0.105902 -0.000189087 0)
(-0.106048 8.31456e-05 0)
(-0.106256 0.000401155 0)
(-0.106561 0.000759745 0)
(-0.106985 0.00115456 0)
(-0.107536 0.00157811 0)
(-0.108222 0.00202549 0)
(-0.109045 0.0024933 0)
(-0.110004 0.00297792 0)
(-0.111098 0.00347532 0)
(-0.112319 0.00398107 0)
(-0.113661 0.00449045 0)
(-0.115114 0.00499848 0)
(-0.116666 0.00550002 0)
(-0.118303 0.00598987 0)
(-0.120013 0.00646281 0)
(-0.121778 0.0069137 0)
(-0.123583 0.00733749 0)
(-0.12541 0.00772913 0)
(-0.127241 0.00808358 0)
(-0.129057 0.00839555 0)
(-0.13084 0.00865925 0)
(-0.132571 0.00886801 0)
(-0.13423 0.00901381 0)
(-0.135795 0.00908678 0)
(-0.137247 0.00907461 0)
(-0.13856 0.0089617 0)
(-0.139708 0.00872827 0)
(-0.140662 0.00834919 0)
(-0.141385 0.00779257 0)
(-0.141834 0.00701828 0)
(-0.141957 0.00597586 0)
(-0.141692 0.00460056 0)
(-0.140959 0.00280728 0)
(-0.139631 0.000489677 0)
(-0.137552 -0.00246092 0)
(-0.134786 -0.00612074 0)
(-0.130963 -0.0106659 0)
(-0.125746 -0.0163046 0)
(-0.118692 -0.0231851 0)
(-0.109297 -0.0313213 0)
(-0.0970755 -0.0404547 0)
(-0.0817272 -0.0497643 0)
(-0.0634147 -0.0572779 0)
(-0.043086 -0.0587689 0)
(-0.0226736 -0.0459186 0)
(-0.00356197 -0.00479966 0)
(-0.00644197 0.0419495 0)
(-0.0121119 0.0130266 0)
(-0.0165416 0.00161259 0)
(-0.0199268 0.000456859 0)
(-0.022946 0.00206013 0)
(-0.025959 0.00388618 0)
(-0.0291809 0.00549194 0)
(-0.0326869 0.00682461 0)
(-0.0364495 0.00786154 0)
(-0.0403569 0.00855697 0)
(-0.0442307 0.00884923 0)
(-0.0478601 0.0086864 0)
(-0.0510408 0.00805274 0)
(-0.0536088 0.00698303 0)
(-0.0554614 0.00556171 0)
(-0.0565664 0.00391014 0)
(-0.0569594 0.00216791 0)
(-0.0567357 0.000472652 0)
(-0.0560429 -0.0010604 0)
(-0.0550313 -0.00233511 0)
(-0.0538815 -0.00329365 0)
(-0.0527198 -0.00393814 0)
(-0.0516236 -0.0043083 0)
(-0.0506348 -0.00445781 0)
(-0.0497711 -0.00444 0)
(-0.0490365 -0.00430046 0)
(-0.0484286 -0.00407467 0)
(-0.0479432 -0.0037886 0)
(-0.0475766 -0.00346025 0)
(-0.0473265 -0.00310151 0)
(-0.0471935 -0.00272063 0)
(-0.0471806 -0.00232382 0)
(-0.0472946 -0.00191419 0)
(-0.0475462 -0.00149128 0)
(-0.0479504 -0.00104417 0)
(-0.0485295 -0.000552078 0)
(-0.0493394 -7.6478e-06 0)
(-0.0503621 0.000567615 0)
(-0.0514941 0.00113952 0)
(-0.0527156 0.001689 0)
(-0.0540139 0.00220657 0)
(-0.0553777 0.00268263 0)
(-0.0567981 0.00310659 0)
(-0.0582661 0.00346849 0)
(-0.0597726 0.0037603 0)
(-0.0613079 0.00397713 0)
(-0.062862 0.00411778 0)
(-0.0644247 0.00418488 0)
(-0.0659858 0.00418448 0)
(-0.0675352 0.00412526 0)
(-0.069063 0.00401752 0)
(-0.0705594 0.00387216 0)
(-0.072015 0.00369972 0)
(-0.0734207 0.00350966 0)
(-0.074768 0.00330994 0)
(-0.0760493 0.00310684 0)
(-0.077258 0.002905 0)
(-0.0783887 0.00270763 0)
(-0.0794376 0.00251678 0)
(-0.0804022 0.00233357 0)
(-0.0812816 0.00215854 0)
(-0.0820759 0.00199189 0)
(-0.0827865 0.00183357 0)
(-0.0834157 0.00168337 0)
(-0.0839663 0.00154098 0)
(-0.0844415 0.00140595 0)
(-0.0848447 0.00127765 0)
(-0.085179 0.00115523 0)
(-0.0854474 0.0010375 0)
(-0.0856525 0.000922856 0)
(-0.0857961 0.000809271 0)
(-0.0858795 0.000694131 0)
(-0.0859031 0.000574128 0)
(-0.0858661 0.00044534 0)
(-0.0857658 0.000303795 0)
(-0.0855988 0.000144995 0)
(-0.0853643 -3.92933e-05 0)
(-0.0850444 -0.00025681 0)
(-0.0846253 -0.000512455 0)
(-0.084119 -0.000807227 0)
(-0.083529 -0.00113797 0)
(-0.082858 -0.00150434 0)
(-0.0821097 -0.00190442 0)
(-0.0812895 -0.00233342 0)
(-0.0804045 -0.00278342 0)
(-0.0794642 -0.00324324 0)
(-0.0784811 -0.00369843 0)
(-0.0774711 -0.00413125 0)
(-0.0764539 -0.00452072 0)
(-0.0754537 -0.00484275 0)
(-0.0744995 -0.00507046 0)
(-0.0736251 -0.00517477 0)
(-0.0728689 -0.00512528 0)
(-0.072274 -0.00489177 0)
(-0.0718869 -0.0044465 0)
(-0.0717556 -0.00376755 0)
(-0.0719232 -0.0028427 0)
(-0.0724197 -0.0016746 0)
(-0.0732705 -0.000296977 0)
(-0.0745063 0.00118988 0)
(-0.0758314 0.00263365 0)
(-0.0773881 0.0039788 0)
(-0.0792166 0.00519372 0)
(-0.0813127 0.00623009 0)
(-0.0836502 0.00705436 0)
(-0.0861785 0.00765265 0)
(-0.0888283 0.00802448 0)
(-0.0915188 0.00817618 0)
(-0.0941661 0.0081173 0)
(-0.0966908 0.00786007 0)
(-0.0990235 0.0074206 0)
(-0.101109 0.00682043 0)
(-0.102908 0.00608773 0)
(-0.104399 0.00525756 0)
(-0.105578 0.00437119 0)
(-0.106454 0.00347446 0)
(-0.107054 0.00261502 0)
(-0.107411 0.00183893 0)
(-0.107567 0.00118671 0)
(-0.107571 0.000690741 0)
(-0.107473 0.000375178 0)
(-0.107324 0.000251839 0)
(-0.107177 0.000324218 0)
(-0.107081 0.000583221 0)
(-0.107078 0.00100449 0)
(-0.107197 0.0015593 0)
(-0.107451 0.00221218 0)
(-0.107836 0.00292309 0)
(-0.108337 0.00364407 0)
(-0.108927 0.00431992 0)
(-0.109575 0.00489401 0)
(-0.110239 0.00531551 0)
(-0.110875 0.00554572 0)
(-0.111436 0.00556285 0)
(-0.111878 0.00536485 0)
(-0.112167 0.00496975 0)
(-0.112284 0.00441355 0)
(-0.112226 0.0037437 0)
(-0.11201 0.00300994 0)
(-0.111665 0.00226219 0)
(-0.111233 0.00154461 0)
(-0.110759 0.000890126 0)
(-0.110281 0.000326557 0)
(-0.109833 -0.000123008 0)
(-0.109462 -0.000450762 0)
(-0.109195 -0.000665232 0)
(-0.109033 -0.000784725 0)
(-0.108967 -0.000829531 0)
(-0.108985 -0.000816428 0)
(-0.109071 -0.000755527 0)
(-0.109212 -0.000649762 0)
(-0.109401 -0.000497568 0)
(-0.109629 -0.000294306 0)
(-0.109889 -3.16817e-05 0)
(-0.110181 0.000296339 0)
(-0.110522 0.000687746 0)
(-0.110921 0.00113453 0)
(-0.111382 0.00162551 0)
(-0.111906 0.0021504 0)
(-0.112493 0.00270103 0)
(-0.113142 0.00327053 0)
(-0.113849 0.0038525 0)
(-0.114608 0.00444057 0)
(-0.115411 0.00502834 0)
(-0.11625 0.00560934 0)
(-0.117113 0.00617709 0)
(-0.117992 0.00672516 0)
(-0.118873 0.00724729 0)
(-0.119744 0.00773746 0)
(-0.120594 0.00818998 0)
(-0.121409 0.00859954 0)
(-0.122177 0.00896107 0)
(-0.122887 0.00926971 0)
(-0.123527 0.00952054 0)
(-0.124088 0.0097083 0)
(-0.124561 0.00982696 0)
(-0.124939 0.00986918 0)
(-0.125214 0.00982566 0)
(-0.125383 0.00968441 0)
(-0.12544 0.00942983 0)
(-0.125383 0.00904151 0)
(-0.125207 0.00849271 0)
(-0.124906 0.00774848 0)
(-0.124471 0.00676325 0)
(-0.12389 0.00547807 0)
(-0.123146 0.00381735 0)
(-0.122209 0.00168525 0)
(-0.120986 -0.00103557 0)
(-0.119569 -0.00446796 0)
(-0.117693 -0.00881312 0)
(-0.115165 -0.0143527 0)
(-0.111681 -0.0213547 0)
(-0.106839 -0.0300428 0)
(-0.100148 -0.040491 0)
(-0.0910693 -0.0524292 0)
(-0.0791245 -0.0648751 0)
(-0.064054 -0.0754557 0)
(-0.0460649 -0.0791907 0)
(-0.0262761 -0.0663688 0)
(-0.00733592 -0.0197538 0)
(-0.00552355 0.0503857 0)
(-0.0113066 0.0189815 0)
(-0.0163091 0.00593429 0)
(-0.0204895 0.0041896 0)
(-0.0243458 0.00556393 0)
(-0.0281708 0.00745405 0)
(-0.0321257 0.00925147 0)
(-0.0362483 0.0107857 0)
(-0.0404784 0.0119373 0)
(-0.0446725 0.0125852 0)
(-0.0486348 0.0126266 0)
(-0.0521585 0.0120095 0)
(-0.0550668 0.0107541 0)
(-0.0572436 0.00895556 0)
(-0.0586507 0.00677138 0)
(-0.0593314 0.00439738 0)
(-0.0594017 0.00203937 0)
(-0.0590323 -0.000115846 0)
(-0.0584242 -0.00192314 0)
(-0.0577479 -0.00329257 0)
(-0.0571289 -0.00422119 0)
(-0.0566298 -0.00476431 0)
(-0.0562751 -0.00500046 0)
(-0.0560664 -0.00500762 0)
(-0.0559949 -0.00485169 0)
(-0.0560487 -0.00458281 0)
(-0.0562178 -0.00423641 0)
(-0.0564955 -0.00383658 0)
(-0.0568793 -0.00339902 0)
(-0.0573711 -0.00293228 0)
(-0.0579776 -0.00243954 0)
(-0.0587085 -0.00191849 0)
(-0.0595771 -0.00135609 0)
(-0.0605998 -0.000737368 0)
(-0.0618136 -6.5583e-05 0)
(-0.0631768 0.000630448 0)
(-0.0645629 0.00131242 0)
(-0.0659373 0.00195549 0)
(-0.0673172 0.00255963 0)
(-0.0687066 0.00313169 0)
(-0.0701044 0.00366905 0)
(-0.071507 0.00416276 0)
(-0.0729103 0.0046016 0)
(-0.0743098 0.00497476 0)
(-0.0757016 0.00527355 0)
(-0.0770821 0.0054925 0)
(-0.0784479 0.00562996 0)
(-0.0797954 0.005688 0)
(-0.0811203 0.00567209 0)
(-0.0824181 0.00559022 0)
(-0.0836831 0.00545204 0)
(-0.084909 0.00526794 0)
(-0.0860891 0.00504817 0)
(-0.0872166 0.00480228 0)
(-0.0882846 0.00453869 0)
(-0.0892871 0.00426452 0)
(-0.0902188 0.00398562 0)
(-0.0910758 0.00370661 0)
(-0.0918554 0.00343105 0)
(-0.0925563 0.00316154 0)
(-0.0931784 0.00290001 0)
(-0.0937227 0.00264786 0)
(-0.0941913 0.00240605 0)
(-0.0945869 0.00217514 0)
(-0.0949128 0.0019553 0)
(-0.0951726 0.00174633 0)
(-0.0953697 0.0015476 0)
(-0.0955076 0.00135807 0)
(-0.0955895 0.00117622 0)
(-0.095618 0.000999961 0)
(-0.0955956 0.000826631 0)
(-0.095524 0.000652933 0)
(-0.0954047 0.000474642 0)
(-0.0952375 0.000286597 0)
(-0.0950219 8.34649e-05 0)
(-0.0947592 -0.000143762 0)
(-0.0944415 -0.000399704 0)
(-0.0940749 -0.000686862 0)
(-0.0936693 -0.00100509 0)
(-0.093229 -0.00135501 0)
(-0.0927577 -0.00173726 0)
(-0.0922593 -0.00215104 0)
(-0.0917387 -0.00259289 0)
(-0.0912028 -0.00305612 0)
(-0.0906602 -0.00353049 0)
(-0.0901215 -0.00400218 0)
(-0.0895999 -0.0044537 0)
(-0.0891111 -0.0048639 0)
(-0.0886732 -0.00520813 0)
(-0.0883072 -0.00545857 0)
(-0.0880359 -0.00558476 0)
(-0.0878837 -0.00555467 0)
(-0.087875 -0.0053364 0)
(-0.0880325 -0.0049006 0)
(-0.0883745 -0.0042239 0)
(-0.0889113 -0.00329346 0)
(-0.08964 -0.00211294 0)
(-0.0905467 -0.000712347 0)
(-0.0916221 0.00084127 0)
(-0.0927279 0.00245069 0)
(-0.0939557 0.00406136 0)
(-0.095343 0.00562307 0)
(-0.0968836 0.00705566 0)
(-0.0985661 0.008288 0)
(-0.100366 0.00926966 0)
(-0.102244 0.00997053 0)
(-0.104145 0.0103775 0)
(-0.106008 0.0104905 0)
(-0.107766 0.0103199 0)
(-0.109359 0.00988462 0)
(-0.110732 0.00921241 0)
(-0.111848 0.00833975 0)
(-0.112682 0.00731179 0)
(-0.11323 0.0061814 0)
(-0.113503 0.00500709 0)
(-0.113527 0.00384954 0)
(-0.113341 0.00276613 0)
(-0.112992 0.00180696 0)
(-0.112529 0.00101411 0)
(-0.111997 0.000421167 0)
(-0.111438 5.51855e-05 0)
(-0.110903 -6.78314e-05 0)
(-0.110419 4.28111e-05 0)
(-0.109998 0.000366022 0)
(-0.109635 0.000875278 0)
(-0.109342 0.00152592 0)
(-0.109121 0.00227015 0)
(-0.108956 0.00305739 0)
(-0.108821 0.00383137 0)
(-0.108684 0.00453017 0)
(-0.10851 0.00509174 0)
(-0.108261 0.00546169 0)
(-0.107896 0.00560113 0)
(-0.107379 0.00549307 0)
(-0.106683 0.00514592 0)
(-0.105794 0.00459143 0)
(-0.104725 0.0038805 0)
(-0.103516 0.00307549 0)
(-0.102231 0.00223586 0)
(-0.100945 0.00142592 0)
(-0.0997385 0.000711086 0)
(-0.0986758 0.000138239 0)
(-0.0978666 -0.000275085 0)
(-0.09736 -0.000544506 0)
(-0.0971083 -0.000693644 0)
(-0.097057 -0.000752089 0)
(-0.0971665 -0.000744042 0)
(-0.0974032 -0.000687985 0)
(-0.0977376 -0.000601185 0)
(-0.0981413 -0.000493425 0)
(-0.0985908 -0.000359053 0)
(-0.0990661 -0.000182224 0)
(-0.0995665 5.25533e-05 0)
(-0.100113 0.000351985 0)
(-0.100704 0.000716409 0)
(-0.101321 0.00114172 0)
(-0.101951 0.00161962 0)
(-0.102586 0.00213941 0)
(-0.103219 0.00269096 0)
(-0.103843 0.00326527 0)
(-0.104453 0.00385416 0)
(-0.105044 0.00444991 0)
(-0.105608 0.00504501 0)
(-0.106139 0.00563203 0)
(-0.106628 0.00620368 0)
(-0.107069 0.00675281 0)
(-0.107454 0.00727259 0)
(-0.107773 0.00775652 0)
(-0.108021 0.00819863 0)
(-0.108189 0.0085935 0)
(-0.108271 0.00893634 0)
(-0.108262 0.00922294 0)
(-0.108158 0.00944949 0)
(-0.107955 0.00961241 0)
(-0.107652 0.00970799 0)
(-0.107251 0.00973193 0)
(-0.106755 0.00967879 0)
(-0.106169 0.00954119 0)
(-0.105501 0.00930897 0)
(-0.104763 0.00896804 0)
(-0.103967 0.00849901 0)
(-0.10313 0.00787539 0)
(-0.102268 0.00706114 0)
(-0.101398 0.00600758 0)
(-0.100538 0.00465017 0)
(-0.0997045 0.00290764 0)
(-0.0989013 0.000683741 0)
(-0.098075 -0.00213965 0)
(-0.0973502 -0.00574003 0)
(-0.0964951 -0.0104239 0)
(-0.0953793 -0.0165276 0)
(-0.093754 -0.0244113 0)
(-0.0912574 -0.0344064 0)
(-0.0874019 -0.0466964 0)
(-0.0815836 -0.0610861 0)
(-0.0731281 -0.0765752 0)
(-0.0613816 -0.0905909 0)
(-0.045917 -0.0976318 0)
(-0.0272054 -0.0867799 0)
(-0.00868306 -0.0367789 0)
(-0.00485522 0.0581146 0)
(-0.0107532 0.0250705 0)
(-0.0160721 0.0107147 0)
(-0.0206923 0.00848066 0)
(-0.0250795 0.00971679 0)
(-0.0294333 0.0116396 0)
(-0.0338496 0.0135365 0)
(-0.0383277 0.0151401 0)
(-0.0427793 0.0162457 0)
(-0.0470471 0.016673 0)
(-0.0509404 0.0162988 0)
(-0.0542781 0.0150915 0)
(-0.0569271 0.0131247 0)
(-0.0588296 0.0105691 0)
(-0.0600153 0.00766575 0)
(-0.0605977 0.00468888 0)
(-0.060754 0.00190346 0)
(-0.0606903 -0.000477294 0)
(-0.0605979 -0.002322 0)
(-0.0606014 -0.00360723 0)
(-0.0607592 -0.00439136 0)
(-0.0610852 -0.00477201 0)
(-0.0615698 -0.0048511 0)
(-0.0621943 -0.00471642 0)
(-0.0629396 -0.00443538 0)
(-0.0637905 -0.00405517 0)
(-0.0647379 -0.00360601 0)
(-0.0657785 -0.00310634 0)
(-0.0669124 -0.00256548 0)
(-0.0681422 -0.0019824 0)
(-0.0694722 -0.00134976 0)
(-0.0709061 -0.000666967 0)
(-0.0724544 5.31465e-05 0)
(-0.0740381 0.000779585 0)
(-0.0755547 0.00148043 0)
(-0.0769897 0.00213878 0)
(-0.0783792 0.00276297 0)
(-0.079738 0.00336656 0)
(-0.08107 0.00395108 0)
(-0.0823724 0.00450951 0)
(-0.0836402 0.00503159 0)
(-0.0848682 0.00550592 0)
(-0.0860525 0.00592131 0)
(-0.0871907 0.00626786 0)
(-0.0882817 0.00653792 0)
(-0.0893255 0.00672673 0)
(-0.0903225 0.00683282 0)
(-0.0912734 0.006858 0)
(-0.0921784 0.00680704 0)
(-0.0930373 0.00668707 0)
(-0.0938488 0.00650684 0)
(-0.0946112 0.00627598 0)
(-0.0953221 0.00600432 0)
(-0.095979 0.00570137 0)
(-0.0965794 0.00537591 0)
(-0.0971215 0.00503578 0)
(-0.0976039 0.00468784 0)
(-0.0980263 0.0043379 0)
(-0.0983892 0.00399069 0)
(-0.0986943 0.00364992 0)
(-0.0989435 0.00331847 0)
(-0.0991397 0.00299857 0)
(-0.0992863 0.00269187 0)
(-0.099387 0.00239935 0)
(-0.0994454 0.00212138 0)
(-0.0994651 0.00185778 0)
(-0.0994494 0.0016078 0)
(-0.0994014 0.00137016 0)
(-0.0993233 0.00114301 0)
(-0.0992174 0.000923978 0)
(-0.0990851 0.000710038 0)
(-0.0989279 0.00049757 0)
(-0.0987473 0.000282185 0)
(-0.0985432 5.80839e-05 0)
(-0.0983183 -0.00018211 0)
(-0.0980766 -0.000441853 0)
(-0.0978257 -0.000723074 0)
(-0.0975719 -0.00102796 0)
(-0.0973189 -0.00135916 0)
(-0.0970692 -0.00171861 0)
(-0.0968258 -0.00210667 0)
(-0.0965924 -0.0025214 0)
(-0.0963741 -0.00295793 0)
(-0.096177 -0.00340797 0)
(-0.0960088 -0.00385951 0)
(-0.0958791 -0.00429679 0)
(-0.0957987 -0.00470037 0)
(-0.0957797 -0.00504733 0)
(-0.0958351 -0.00531158 0)
(-0.095978 -0.00546446 0)
(-0.0962211 -0.00547576 0)
(-0.0965752 -0.00531516 0)
(-0.0970475 -0.00495434 0)
(-0.0976402 -0.00436965 0)
(-0.0983484 -0.00354562 0)
(-0.0991585 -0.00247963 0)
(-0.10005 -0.00118819 0)
(-0.100996 0.000288323 0)
(-0.101947 0.00189123 0)
(-0.102911 0.00356753 0)
(-0.103935 0.00527285 0)
(-0.105003 0.00692739 0)
(-0.106102 0.00844235 0)
(-0.107216 0.00973893 0)
(-0.108322 0.0107558 0)
(-0.109388 0.0114513 0)
(-0.110374 0.0118032 0)
(-0.111234 0.0118066 0)
(-0.111922 0.0114722 0)
(-0.112394 0.0108253 0)
(-0.112616 0.00990443 0)
(-0.112567 0.00876124 0)
(-0.112244 0.00745877 0)
(-0.111662 0.00606826 0)
(-0.110852 0.00466301 0)
(-0.109864 0.00331187 0)
(-0.10876 0.00207522 0)