/*--------------------------------*- C++ -*----------------------------------*\
  =========                 |
  \\      /  F ield         | OpenFOAM: The Open Source CFD Toolbox
   \\    /   O peration     | Website:  https://openfoam.org
    \\  /    A nd           | Version:  11
     \\/     M anipulation  |
\*---------------------------------------------------------------------------*/
FoamFile
{
    format      ascii;
    class       surfaceScalarField;
    location    "20";
    object      phi;
}
// * * * * * * * * * * * * * * * * * * * * * * * * * * * * * * * * * * * * * //

dimensions      [1 0 -1 0 0 0 0];

internalField   nonuniform List<scalar> 
79600
(
-8.58488e-06
8.58542e-06
-8.2897e-06
-2.94742e-07
-6.08084e-06
-2.20909e-06
-4.48812e-06
-1.59336e-06
-3.6842e-06
-8.04837e-07
-3.4264e-06
-2.5902e-07
-3.45074e-06
2.27705e-08
-3.54129e-06
8.85325e-08
-3.58912e-06
4.53378e-08
-3.5447e-06
-4.74437e-08
-3.38182e-06
-1.66519e-07
-3.10278e-06
-2.83265e-07
-2.72097e-06
-3.8652e-07
-2.25925e-06
-4.6675e-07
-1.74628e-06
-5.18147e-07
-1.21151e-06
-5.39948e-07
-6.81823e-07
-5.34731e-07
-1.79712e-07
-5.0694e-07
2.77178e-07
-4.61476e-07
6.79903e-07
-4.07064e-07
1.01704e-06
-3.41151e-07
1.28302e-06
-2.6968e-07
1.47519e-06
-1.95583e-07
1.59304e-06
-1.20974e-07
1.63701e-06
-4.68534e-08
1.60995e-06
2.4397e-08
1.50224e-06
1.05191e-07
1.3195e-06
1.80353e-07
1.06567e-06
2.51564e-07
7.47264e-07
3.16245e-07
3.71314e-07
3.73895e-07
-5.23422e-08
4.2169e-07
-5.11896e-07
4.57641e-07
-9.95106e-07
4.81368e-07
-1.49056e-06
4.93675e-07
-1.98722e-06
4.94929e-07
-2.47508e-06
4.86162e-07
-2.94568e-06
4.68917e-07
-3.39243e-06
4.45077e-07
-3.8108e-06
4.16678e-07
-4.19824e-06
3.85731e-07
-4.55406e-06
3.54063e-07
-4.87908e-06
3.23208e-07
-5.17528e-06
2.94329e-07
-5.44543e-06
2.682e-07
-5.69265e-06
2.45215e-07
-5.92018e-06
2.25442e-07
-6.13103e-06
2.08695e-07
-6.32785e-06
1.94613e-07
-6.51287e-06
1.82746e-07
-6.68781e-06
1.72626e-07
-6.85399e-06
1.63823e-07
-7.01235e-06
1.55985e-07
-7.16361e-06
1.48848e-07
-7.30826e-06
1.42243e-07
-7.44675e-06
1.36069e-07
-7.57944e-06
1.30281e-07
-7.7067e-06
1.24868e-07
-7.82888e-06
1.19816e-07
-7.94632e-06
1.15092e-07
-8.05924e-06
1.10617e-07
-8.16775e-06
1.06243e-07
-8.27171e-06
1.01747e-07
-8.37067e-06
9.67987e-08
-8.46373e-06
9.09595e-08
-8.54946e-06
8.36959e-08
-8.62587e-06
7.44488e-08
-8.6905e-06
6.27389e-08
-8.74064e-06
4.83283e-08
-8.77381e-06
3.14454e-08
-8.78849e-06
1.30407e-08
-8.78446e-06
-5.58361e-09
-8.75349e-06
-3.24258e-08
-8.69004e-06
-6.48181e-08
-8.58616e-06
-1.05156e-07
-8.43378e-06
-1.53555e-07
-8.22538e-06
-2.09471e-07
-7.95453e-06
-2.71819e-07
-7.61654e-06
-3.38872e-07
-7.20916e-06
-4.08165e-07
-6.73342e-06
-4.7643e-07
-6.19446e-06
-5.39583e-07
-5.60223e-06
-5.92779e-07
-4.97224e-06
-6.30493e-07
-4.32568e-06
-6.47011e-07
-3.6892e-06
-6.36887e-07
-3.09423e-06
-5.95363e-07
-2.57516e-06
-5.1945e-07
-2.1661e-06
-4.09429e-07
-1.8957e-06
-2.70755e-07
-1.77932e-06
-1.16746e-07
-1.80701e-06
2.73293e-08
-2.00792e-06
2.00549e-07
-2.34062e-06
3.32333e-07
-2.76534e-06
4.24378e-07
-3.24062e-06
4.74948e-07
-3.7312e-06
4.90275e-07
-4.21633e-06
4.84883e-07
-4.68706e-06
4.70537e-07
-5.14163e-06
4.54456e-07
-5.58219e-06
4.40531e-07
-6.01106e-06
4.28935e-07
-6.42771e-06
4.16829e-07
-6.82741e-06
3.99973e-07
-7.20154e-06
3.74506e-07
-7.53939e-06
3.3831e-07
-7.83049e-06
2.91657e-07
-8.06698e-06
2.37112e-07
-8.24522e-06
1.78923e-07
-8.36662e-06
1.22125e-07
-8.43752e-06
7.16663e-08
-8.46847e-06
3.1734e-08
-8.47298e-06
5.31601e-09
-8.46218e-06
-9.98601e-09
-8.44685e-06
-1.44914e-08
-8.44159e-06
-4.4272e-09
-8.46504e-06
2.42996e-08
-8.53542e-06
7.12436e-08
-8.66665e-06
1.32104e-07
-8.86628e-06
2.00542e-07
-9.13625e-06
2.70911e-07
-9.47316e-06
3.3789e-07
-9.86874e-06
3.96606e-07
-1.03107e-05
4.43013e-07
-1.07836e-05
4.74062e-07
-1.12703e-05
4.87839e-07
-1.17529e-05
4.83815e-07
-1.22147e-05
4.62976e-07
-1.26413e-05
4.27753e-07
-1.30219e-05
3.81682e-07
-1.33497e-05
3.28846e-07
-1.3622e-05
2.73265e-07
-1.38395e-05
2.18399e-07
-1.40055e-05
1.66828e-07
-1.4125e-05
1.20123e-07
-1.42031e-05
7.87467e-08
-1.4245e-05
4.23697e-08
-1.42569e-05
1.22919e-08
-1.42426e-05
-1.39686e-08
-1.42007e-05
-4.16582e-08
-1.41296e-05
-7.09454e-08
-1.40277e-05
-1.01897e-07
-1.38943e-05
-1.33367e-07
-1.37311e-05
-1.63184e-07
-1.35421e-05
-1.89192e-07
-1.33328e-05
-2.09436e-07
-1.31107e-05
-2.2233e-07
-1.28843e-05
-2.26693e-07
-1.26627e-05
-2.21862e-07
-1.24543e-05
-2.08772e-07
-1.2266e-05
-1.88744e-07
-1.21253e-05
-1.41154e-07
-1.20696e-05
-5.6172e-08
-1.21224e-05
5.22891e-08
-1.22802e-05
1.57187e-07
-1.25336e-05
2.52735e-07
-1.2886e-05
3.51542e-07
-1.33463e-05
4.59442e-07
-1.39257e-05
5.78507e-07
-1.46363e-05
7.09474e-07
-1.549e-05
8.5244e-07
-1.64982e-05
1.00691e-06
-1.76715e-05
1.17173e-06
-1.90181e-05
1.345e-06
-2.0544e-05
1.52413e-06
-2.22518e-05
1.70589e-06
-2.41403e-05
1.88655e-06
-2.62043e-05
2.06203e-06
-2.84343e-05
2.22814e-06
-3.08169e-05
2.38081e-06
-3.33348e-05
2.5163e-06
-3.59677e-05
2.63144e-06
-3.86927e-05
2.72374e-06
-4.14852e-05
2.79144e-06
-4.43196e-05
2.8336e-06
-4.71703e-05
2.85007e-06
-5.00122e-05
2.84146e-06
-5.28217e-05
2.80909e-06
-5.55767e-05
2.7548e-06
-5.82575e-05
2.6807e-06
-6.08461e-05
2.58861e-06
-6.33252e-05
2.47906e-06
-6.56752e-05
2.35007e-06
-6.78709e-05
2.19577e-06
-6.9876e-05
2.00521e-06
-7.16368e-05
1.76097e-06
-7.30735e-05
1.43672e-06
-7.40699e-05
9.96543e-07
-7.44851e-05
4.15254e-07
-7.40848e-05
-4.00256e-07
-7.26114e-05
-1.47339e-06
-6.97343e-05
-2.8771e-06
-6.51071e-05
-4.62706e-06
-5.83768e-05
-6.73025e-06
-4.9234e-05
-9.14267e-06
-3.75306e-05
-1.17033e-05
-2.35831e-05
-1.39473e-05
-9.01285e-06
-1.45702e-05
1.48365e-06
-1.04963e-05
1.48281e-06
-6.77554e-06
1.53615e-05
-8.97658e-06
1.90614e-06
-9.24607e-06
-1.94076e-06
-9.54331e-06
-1.29792e-06
-1.02003e-05
-1.50226e-07
-1.09973e-05
5.34872e-07
-1.17292e-05
7.50866e-07
-1.22853e-05
6.40039e-07
-1.25952e-05
3.50101e-07
-1.26311e-05
-1.73086e-08
-1.24073e-05
-3.96812e-07
-1.19525e-05
-7.44889e-07
-1.13164e-05
-1.02927e-06
-1.05596e-05
-1.22983e-06
-9.74139e-06
-1.34202e-06
-8.91181e-06
-1.37449e-06
-8.10879e-06
-1.34202e-06
-7.35883e-06
-1.26052e-06
-6.67891e-06
-1.14443e-06
-6.08291e-06
-1.00559e-06
-5.57528e-06
-8.50872e-07
-5.15988e-06
-6.86778e-07
-4.83925e-06
-5.17588e-07
-4.6152e-06
-3.46119e-07
-4.48932e-06
-1.73574e-07
-4.46893e-06
3.3739e-09
-4.55768e-06
1.93392e-07
-4.76619e-06
3.88372e-07
-5.09326e-06
5.782e-07
-5.5346e-06
7.57195e-07
-6.08213e-06
9.21062e-07
-6.72572e-06
1.06491e-06
-7.45317e-06
1.18469e-06
-8.24988e-06
1.27763e-06
-9.09906e-06
1.34232e-06
-9.98347e-06
1.37869e-06
-1.08862e-05
1.38813e-06
-1.17916e-05
1.37333e-06
-1.26857e-05
1.33809e-06
-1.35572e-05
1.28683e-06
-1.43973e-05
1.22423e-06
-1.51997e-05
1.15481e-06
-1.5961e-05
1.08255e-06
-1.66794e-05
1.01072e-06
-1.73551e-05
9.41704e-07
-1.79892e-05
8.77042e-07
-1.85836e-05
8.17492e-07
-1.91405e-05
7.63192e-07
-1.96621e-05
7.13843e-07
-2.01506e-05
6.68894e-07
-2.06081e-05
6.27696e-07
-2.10362e-05
5.89627e-07
-2.14366e-05
5.54165e-07
-2.18109e-05
5.20922e-07
-2.21605e-05
4.89642e-07
-2.24867e-05
4.60167e-07
-2.27908e-05
4.32397e-07
-2.30741e-05
4.06242e-07
-2.33378e-05
3.8157e-07
-2.35826e-05
3.58163e-07
-2.38094e-05
3.35678e-07
-2.40184e-05
3.13613e-07
-2.42096e-05
2.91297e-07
-2.43821e-05
2.67866e-07
-2.45348e-05
2.42268e-07
-2.46658e-05
2.13338e-07
-2.47726e-05
1.7995e-07
-2.48521e-05
1.41113e-07
-2.49009e-05
9.60641e-08
-2.49156e-05
4.51911e-08
-2.48948e-05
-8.67974e-09
-2.48225e-05
-7.87526e-08
-2.46912e-05
-1.6439e-07
-2.44889e-05
-2.6774e-07
-2.42064e-05
-3.88225e-07
-2.38363e-05
-5.24121e-07
-2.33735e-05
-6.72691e-07
-2.28155e-05
-8.30144e-07
-2.21631e-05
-9.91567e-07
-2.14207e-05
-1.15088e-06
-2.05965e-05
-1.30084e-06
-1.97033e-05
-1.43307e-06
-1.8758e-05
-1.53823e-06
-1.77825e-05
-1.60626e-06
-1.68029e-05
-1.62691e-06
-1.58496e-05
-1.59047e-06
-1.49565e-05
-1.48882e-06
-1.41592e-05
-1.31708e-06
-1.34934e-05
-1.07563e-06
-1.29922e-05
-7.72368e-07
-1.26873e-05
-4.21992e-07
-1.26294e-05
-3.0839e-08
-1.28314e-05
4.02227e-07
-1.33062e-05
8.07025e-07
-1.40123e-05
1.13036e-06
-1.49051e-05
1.36788e-06
-1.5945e-05
1.53025e-06
-1.7093e-05
1.63323e-06
-1.83124e-05
1.69038e-06
-1.95676e-05
1.71034e-06
-2.08231e-05
1.6968e-06
-2.20436e-05
1.65029e-06
-2.31962e-05
1.57041e-06
-2.42529e-05
1.45777e-06
-2.51926e-05
1.31528e-06
-2.60017e-05
1.14859e-06
-2.66749e-05
9.66032e-07
-2.72146e-05
7.77899e-07
-2.76302e-05
5.95627e-07
-2.79377e-05
4.30658e-07
-2.81583e-05
2.93345e-07
-2.83177e-05
1.9212e-07
-2.84441e-05
1.32683e-07
-2.85708e-05
1.17611e-07
-2.873e-05
1.45637e-07
-2.89467e-05
2.13208e-07
-2.92377e-05
3.16216e-07
-2.96146e-05
4.49147e-07
-3.00847e-05
6.03138e-07
-3.06493e-05
7.66176e-07
-3.13025e-05
9.25211e-07
-3.20311e-05
1.06759e-06
-3.28157e-05
1.18228e-06
-3.36324e-05
1.26078e-06
-3.44551e-05
1.29784e-06
-3.5258e-05
1.29179e-06
-3.60176e-05
1.2444e-06
-3.67143e-05
1.16049e-06
-3.73333e-05
1.04742e-06
-3.78653e-05
9.14143e-07
-3.83061e-05
7.70108e-07
-3.86567e-05
6.24102e-07
-3.89216e-05
4.83377e-07
-3.9108e-05
3.5311e-07
-3.92243e-05
2.36276e-07
-3.92796e-05
1.33833e-07
-3.92827e-05
4.51728e-08
-3.9238e-05
-3.28343e-08
-3.91474e-05
-1.05026e-07
-3.90149e-05
-1.74756e-07
-3.88485e-05
-2.3803e-07
-3.86585e-05
-2.9258e-07
-3.84565e-05
-3.36119e-07
-3.82547e-05
-3.6586e-07
-3.80661e-05
-3.78667e-07
-3.79052e-05
-3.71329e-07
-3.77876e-05
-3.41025e-07
-3.77298e-05
-2.85525e-07
-3.77505e-05
-2.02258e-07
-3.78711e-05
-8.93966e-08
-3.81061e-05
4.50862e-08
-3.84521e-05
2.03448e-07
-3.88828e-05
3.7321e-07
-3.93924e-05
5.60447e-07
-4.00019e-05
7.6505e-07
-4.07346e-05
9.83817e-07
-4.1599e-05
1.21425e-06
-4.25988e-05
1.45743e-06
-4.37364e-05
1.71422e-06
-4.50134e-05
1.98457e-06
-4.64304e-05
2.26745e-06
-4.79864e-05
2.56092e-06
-4.96787e-05
2.86207e-06
-5.15026e-05
3.16697e-06
-5.3451e-05
3.47073e-06
-5.55144e-05
3.76759e-06
-5.76806e-05
4.05113e-06
-5.99345e-05
4.31456e-06
-6.22586e-05
4.55108e-06
-6.46328e-05
4.75414e-06
-6.70351e-05
4.91789e-06
-6.94415e-05
5.03738e-06
-7.18268e-05
5.10885e-06
-7.41651e-05
5.12977e-06
-7.64303e-05
5.09897e-06
-7.85965e-05
5.01662e-06
-8.06387e-05
4.88417e-06
-8.25333e-05
4.70429e-06
-8.42585e-05
4.4807e-06
-8.57948e-05
4.21769e-06
-8.71247e-05
3.91922e-06
-8.82319e-05
3.58701e-06
-8.90991e-05
3.21796e-06
-8.97042e-05
2.80146e-06
-9.00153e-05
2.31691e-06
-8.99859e-05
1.73202e-06
-8.95502e-05
1.00143e-06
-8.85688e-05
1.55982e-08
-8.70113e-05
-1.14193e-06
-8.47293e-05
-2.68197e-06
-8.15596e-05
-4.64285e-06
-7.72977e-05
-7.1387e-06
-7.16615e-05
-1.0263e-05
-6.4336e-05
-1.40555e-05
-5.50354e-05
-1.8443e-05
-4.36345e-05
-2.31039e-05
-3.04194e-05
-2.71622e-05
-1.64179e-05
-2.85713e-05
-3.80266e-06
-2.31112e-05
-2.31992e-06
-5.68877e-06
2.10503e-05
-9.11729e-06
5.3331e-06
-1.14983e-05
4.37463e-07
-1.34902e-05
6.89908e-07
-1.51404e-05
1.49483e-06
-1.64397e-05
1.82786e-06
-1.73835e-05
1.68735e-06
-1.79592e-05
1.20768e-06
-1.81581e-05
5.40349e-07
-1.79965e-05
-1.87947e-07
-1.75353e-05
-8.66961e-07
-1.68606e-05
-1.42773e-06
-1.60726e-05
-1.82437e-06
-1.52548e-05
-2.05346e-06
-1.44649e-05
-2.13664e-06
-1.37377e-05
-2.10532e-06
-1.30921e-05
-1.99044e-06
-1.25368e-05
-1.81789e-06
-1.2075e-05
-1.6077e-06
-1.17078e-05
-1.37371e-06
-1.14347e-05
-1.12451e-06
-1.12551e-05
-8.66555e-07
-1.11703e-05
-6.02204e-07
-1.11846e-05
-3.31308e-07
-1.13113e-05
-4.62654e-08
-1.15678e-05
2.60578e-07
-1.19505e-05
5.77103e-07
-1.24503e-05
8.89346e-07
-1.3062e-05
1.19122e-06
-1.37795e-05
1.47601e-06
-1.45938e-05
1.73676e-06
-1.54942e-05
1.96659e-06
-1.6468e-05
2.1595e-06
-1.75007e-05
2.31112e-06
-1.85769e-05
2.4191e-06
-1.96814e-05
2.48328e-06
-2.07992e-05
2.50572e-06
-2.1917e-05
2.49043e-06
-2.30229e-05
2.44291e-06
-2.4107e-05
2.36951e-06
-2.51613e-05
2.27684e-06
-2.61797e-05
2.1712e-06
-2.71575e-05
2.05812e-06
-2.80912e-05
1.94211e-06
-2.89784e-05
1.82659e-06
-2.98177e-05
1.71388e-06
-3.06079e-05
1.60538e-06
-3.13488e-05
1.50179e-06
-3.20404e-05
1.40329e-06
-3.26833e-05
1.30977e-06
-3.32785e-05
1.22098e-06
-3.38274e-05
1.13663e-06
-3.43314e-05
1.05649e-06
-3.47924e-05
9.80388e-07
-3.52125e-05
9.08211e-07
-3.55935e-05
8.39869e-07
-3.59377e-05
7.7525e-07
-3.62468e-05
7.1417e-07
-3.65226e-05
6.56316e-07
-3.67666e-05
6.01207e-07
-3.698e-05
5.48157e-07
-3.71634e-05
4.96243e-07
-3.73172e-05
4.44302e-07
-3.74409e-05
3.90907e-07
-3.75335e-05
3.34352e-07
-3.75934e-05
2.7273e-07
-3.76181e-05
2.0416e-07
-3.76043e-05
1.27024e-07
-3.75491e-05
4.06355e-08
-3.74461e-05
-5.80329e-08
-3.72792e-05
-1.75627e-07
-3.70423e-05
-3.15691e-07
-3.67319e-05
-4.7478e-07
-3.63473e-05
-6.5228e-07
-3.58885e-05
-8.46979e-07
-3.53563e-05
-1.05624e-06
-3.47529e-05
-1.27598e-06
-3.40823e-05
-1.50062e-06
-3.33507e-05
-1.72313e-06
-3.25665e-05
-1.93501e-06
-3.17412e-05
-2.12625e-06
-3.08888e-05
-2.28549e-06
-3.0027e-05
-2.40017e-06
-2.91767e-05
-2.45687e-06
-2.8362e-05
-2.44191e-06
-2.76106e-05
-2.34218e-06
-2.69535e-05
-2.14632e-06
-2.64246e-05
-1.84648e-06
-2.60603e-05
-1.44039e-06
-2.5901e-05
-9.31957e-07
-2.59958e-05
-3.27433e-07
-2.63746e-05
3.47925e-07
-2.69985e-05
1.02641e-06
-2.78197e-05
1.62872e-06
-2.88278e-05
2.1392e-06
-3.0008e-05
2.54901e-06
-3.13336e-05
2.85713e-06
-3.27668e-05
3.06785e-06
-3.42623e-05
3.18744e-06
-3.57723e-05
3.2221e-06
-3.7251e-05
3.17737e-06
-3.86577e-05
3.05892e-06
-3.99589e-05
2.87356e-06
-4.11294e-05
2.63028e-06
-4.2153e-05
2.34068e-06
-4.30216e-05
2.01901e-06
-4.37355e-05
1.68164e-06
-4.43021e-05
1.34611e-06
-4.47353e-05
1.03019e-06
-4.50541e-05
7.5071e-07
-4.52818e-05
5.22241e-07
-4.54451e-05
3.56409e-07
-4.55724e-05
2.61e-07
-4.56928e-05
2.38848e-07
-4.58342e-05
2.8788e-07
-4.6021e-05
4.00854e-07
-4.62716e-05
5.67588e-07
-4.65968e-05
7.75208e-07
-4.70008e-05
1.008e-06
-4.74816e-05
1.24795e-06
-4.80316e-05
1.4761e-06
-4.86373e-05
1.67423e-06
-4.92807e-05
1.82666e-06
-4.99408e-05
1.92172e-06
-5.05952e-05
1.95293e-06
-5.12223e-05
1.9195e-06
-5.18035e-05
1.82599e-06
-5.23241e-05
1.68127e-06
-5.27742e-05
1.49751e-06
-5.3149e-05
1.2887e-06
-5.34483e-05
1.0689e-06
-5.36755e-05
8.50607e-07
-5.38367e-05
6.43628e-07
-5.39392e-05
4.54533e-07
-5.3991e-05
2.86781e-07
-5.39999e-05
1.41372e-07
-5.39718e-05
1.55324e-08
-5.39162e-05
-8.99694e-08
-5.38431e-05
-1.79878e-07
-5.3765e-05
-2.54649e-07
-5.36912e-05
-3.13658e-07
-5.36298e-05
-3.55978e-07
-5.35882e-05
-3.79665e-07
-5.35742e-05
-3.82004e-07
-5.35951e-05
-3.59965e-07
-5.36581e-05
-3.10492e-07
-5.37705e-05
-2.30921e-07
-5.39384e-05
-1.2003e-07
-5.41678e-05
2.47511e-08
-5.44506e-05
1.91005e-07
-5.47908e-05
3.82766e-07
-5.51941e-05
6.04149e-07
-5.56783e-05
8.54874e-07
-5.62514e-05
1.13084e-06
-5.69172e-05
1.42816e-06
-5.76789e-05
1.74289e-06
-5.85395e-05
2.07215e-06
-5.94992e-05
2.41442e-06
-6.0556e-05
2.76842e-06
-6.17064e-05
3.13241e-06
-6.29452e-05
3.50386e-06
-6.42659e-05
3.8793e-06
-6.56602e-05
4.25424e-06
-6.71182e-05
4.62308e-06
-6.86283e-05
4.97926e-06
-7.01775e-05
5.31535e-06
-7.17508e-05
5.62338e-06
-7.33322e-05
5.89514e-06
-7.49041e-05
6.1226e-06
-7.64484e-05
6.29833e-06
-7.79461e-05
6.41585e-06
-7.93782e-05
6.47e-06
-8.07257e-05
6.45713e-06
-8.197e-05
6.37522e-06
-8.30937e-05
6.22395e-06
-8.40802e-05
6.00462e-06
-8.49145e-05
5.72015e-06
-8.55836e-05
5.37511e-06
-8.60768e-05
4.97563e-06
-8.63863e-05
4.52893e-06
-8.65078e-05
4.04241e-06
-8.64403e-05
3.52106e-06
-8.61842e-05
2.96337e-06
-8.57393e-05
2.35778e-06
-8.51e-05
1.67867e-06
-8.42502e-05
8.83132e-07
-8.31435e-05
-1.04494e-07
-8.18412e-05
-1.28617e-06
-8.02107e-05
-2.77191e-06
-7.81711e-05
-4.72121e-06
-7.5541e-05
-7.27277e-06
-7.20977e-05
-1.05817e-05
-6.75695e-05
-1.47911e-05
-6.16434e-05
-1.99815e-05
-5.40103e-05
-2.6076e-05
-4.44643e-05
-3.26498e-05
-3.30698e-05
-3.85566e-05
-2.04187e-05
-4.12223e-05
-8.23418e-06
-3.52954e-05
-1.05539e-05
-5.28105e-06
2.63306e-05
-9.43462e-06
9.48365e-06
-1.28498e-05
3.84782e-06
-1.55727e-05
3.40634e-06
-1.76461e-05
3.56029e-06
-1.91374e-05
3.30976e-06
-2.00776e-05
2.61732e-06
-2.05126e-05
1.63188e-06
-2.05132e-05
5.30139e-07
-2.01818e-05
-5.29794e-07
-1.96416e-05
-1.4162e-06
-1.90222e-05
-2.05459e-06
-1.84175e-05
-2.43485e-06
-1.78832e-05
-2.59224e-06
-1.74447e-05
-2.57841e-06
-1.71091e-05
-2.44322e-06
-1.68748e-05
-2.22625e-06
-1.67377e-05
-1.95599e-06
-1.6693e-05
-1.65281e-06
-1.67383e-05
-1.3284e-06
-1.68755e-05
-9.8707e-07
-1.71086e-05
-6.32806e-07
-1.74514e-05
-2.58417e-07
-1.7936e-05
1.54345e-07
-1.85584e-05
5.77474e-07
-1.92871e-05
9.90915e-07
-2.00963e-05
1.38819e-06
-2.09751e-05
1.77028e-06
-2.19155e-05
2.1338e-06
-2.29102e-05
2.47288e-06
-2.39521e-05
2.78061e-06
-2.50336e-05
3.04985e-06
-2.61469e-05
3.27424e-06
-2.72838e-05
3.44899e-06
-2.84357e-05
3.57154e-06
-2.95942e-05
3.64178e-06
-3.0751e-05
3.66208e-06
-3.18984e-05
3.6369e-06
-3.3029e-05
3.57229e-06
-3.41363e-05
3.47515e-06
-3.5214e-05
3.35264e-06
-3.62563e-05
3.21154e-06
-3.72582e-05
3.05791e-06
-3.82149e-05
2.8968e-06
-3.91226e-05
2.73224e-06
-3.99779e-05
2.56728e-06
-4.07783e-05
2.40408e-06
-4.15224e-05
2.24419e-06
-4.22092e-05
2.08861e-06
-4.28387e-05
1.93803e-06
-4.34119e-05
1.79292e-06
-4.39299e-05
1.65358e-06
-4.43946e-05
1.52028e-06
-4.48082e-05
1.39319e-06
-4.51732e-05
1.27243e-06
-4.5492e-05
1.15802e-06
-4.57671e-05
1.04984e-06
-4.6001e-05
9.47605e-07
-4.61959e-05
8.508e-07
-4.63537e-05
7.5867e-07
-4.64759e-05
6.70182e-07
-4.65638e-05
5.8401e-07
-4.66182e-05
4.98532e-07
-4.66391e-05
4.11806e-07
-4.66262e-05
3.21503e-07
-4.65784e-05
2.25017e-07
-4.64937e-05
1.19719e-07
-4.63705e-05
4.02429e-09
-4.62024e-05
-1.27152e-07
-4.59825e-05
-2.77647e-07
-4.57107e-05
-4.46974e-07
-4.5392e-05
-6.3403e-07
-4.50279e-05
-8.38524e-07
-4.462e-05
-1.05973e-06
-4.4171e-05
-1.29567e-06
-4.36841e-05
-1.54278e-06
-4.31639e-05
-1.79581e-06
-4.26165e-05
-2.04781e-06
-4.20493e-05
-2.29011e-06
-4.1472e-05
-2.51227e-06
-4.0896e-05
-2.70217e-06
-4.03355e-05
-2.84611e-06
-3.98067e-05
-2.92905e-06
-3.93288e-05
-2.93507e-06
-3.89229e-05
-2.84808e-06
-3.86124e-05
-2.65295e-06
-3.8422e-05
-2.33713e-06
-3.83757e-05
-1.89302e-06
-3.84957e-05
-1.32058e-06
-3.8798e-05
-6.2955e-07
-3.92842e-05
1.59183e-07
-3.99011e-05
9.65587e-07
-4.06201e-05
1.74639e-06
-4.14675e-05
2.47742e-06
-4.24523e-05
3.12568e-06
-4.35655e-05
3.66414e-06
-4.47834e-05
4.07715e-06
-4.60714e-05
4.35837e-06
-4.73891e-05
4.50776e-06
-4.86939e-05
4.52953e-06
-4.99449e-05
4.43119e-06
-5.11065e-05
4.22335e-06
-5.21502e-05
3.91994e-06
-5.30556e-05
3.53826e-06
-5.38111e-05
3.09868e-06
-5.44138e-05
2.62395e-06
-5.48683e-05
2.13828e-06
-5.51862e-05
1.66576e-06
-5.53836e-05
1.22927e-06
-5.54814e-05
8.49873e-07
-5.55028e-05
5.4472e-07
-5.5472e-05
3.26551e-07
-5.54144e-05
2.04227e-07
-5.53537e-05
1.7892e-07
-5.53125e-05
2.47224e-07
-5.53088e-05
3.97787e-07
-5.53557e-05
6.15157e-07
-5.54595e-05
8.79598e-07
-5.562e-05
1.16921e-06
-5.58325e-05
1.46113e-06
-5.60878e-05
1.73223e-06
-5.63737e-05
1.96081e-06
-5.6675e-05
2.12867e-06
-5.69757e-05
2.22299e-06
-5.72602e-05
2.23789e-06
-5.75155e-05
2.17506e-06
-5.77326e-05
2.04305e-06
-5.7907e-05
1.85534e-06
-5.80389e-05
1.62867e-06
-5.81325e-05
1.38137e-06
-5.81956e-05
1.13062e-06
-5.82371e-05
8.90389e-07
-5.82658e-05
6.70379e-07
-5.82892e-05
4.75719e-07
-5.83125e-05
3.07671e-07
-5.83386e-05
1.64824e-07
-5.83706e-05
4.46944e-08
-5.84112e-05
-5.23016e-08
-5.84668e-05
-1.27199e-07
-5.85422e-05
-1.82336e-07
-5.86396e-05
-2.19471e-07
-5.87609e-05
-2.3794e-07
-5.89081e-05
-2.35817e-07
-5.90829e-05
-2.10574e-07
-5.92868e-05
-1.59565e-07
-5.95205e-05
-8.03965e-08
-5.97846e-05
2.96542e-08
-6.008e-05
1.71759e-07
-6.04068e-05
3.47814e-07
-6.07754e-05
5.55885e-07
-6.11942e-05
7.9774e-07
-6.16659e-05
1.07208e-06
-6.21911e-05
1.37627e-06
-6.27704e-05
1.70646e-06
-6.34043e-05
2.05832e-06
-6.40925e-05
2.42741e-06
-6.48339e-05
2.80995e-06
-6.56256e-05
3.20275e-06
-6.64633e-05
3.60281e-06
-6.73409e-05
4.00683e-06
-6.82508e-05
4.41087e-06
-6.91843e-05
4.81018e-06
-7.01315e-05
5.19908e-06
-7.10813e-05
5.57094e-06
-7.2022e-05
5.91828e-06
-7.29409e-05
6.23299e-06
-7.3825e-05
6.50661e-06
-7.46609e-05
6.7307e-06
-7.54356e-05
6.8973e-06
-7.61362e-05
6.99935e-06
-7.67505e-05
7.03104e-06
-7.72674e-05
6.98817e-06
-7.76769e-05
6.86825e-06
-7.79703e-05
6.67062e-06
-7.81405e-05
6.39636e-06
-7.81816e-05
6.04825e-06
-7.80895e-05
5.63067e-06
-7.78615e-05
5.14983e-06
-7.74973e-05
4.61413e-06
-7.69995e-05
4.03383e-06
-7.63753e-05
3.42075e-06
-7.56385e-05
2.78658e-06
-7.48078e-05
2.13472e-06
-7.39044e-05
1.45615e-06
-7.29434e-05
7.19131e-07
-7.19369e-05
-1.22256e-07
-7.09479e-05
-1.0927e-06
-6.99338e-05
-2.29959e-06
-6.87942e-05
-3.91103e-06
-6.74353e-05
-6.07988e-06
-6.57189e-05
-8.98899e-06
-6.34535e-05
-1.28472e-05
-6.03829e-05
-1.78617e-05
-5.61867e-05
-2.41779e-05
-5.05045e-05
-3.17585e-05
-4.29997e-05
-4.0155e-05
-3.34794e-05
-4.80773e-05
-2.21121e-05
-5.25901e-05
-9.85947e-06
-4.75482e-05
-2.04134e-05
-5.00448e-06
3.13337e-05
-9.45504e-06
1.39302e-05
-1.3231e-05
7.61753e-06
-1.62617e-05
6.42876e-06
-1.85295e-05
5.818e-06
-2.00758e-05
4.84466e-06
-2.0976e-05
3.50546e-06
-2.13424e-05
1.98628e-06
-2.13218e-05
4.98406e-07
-2.10839e-05
-7.77449e-07
-2.07851e-05
-1.72278e-06
-2.05339e-05
-2.31165e-06
-2.03847e-05
-2.58835e-06
-2.03545e-05
-2.62546e-06
-2.04404e-05
-2.49459e-06
-2.06316e-05
-2.25331e-06
-2.0918e-05
-1.9406e-06
-2.12946e-05
-1.57966e-06
-2.17601e-05
-1.1872e-06
-2.23181e-05
-7.70066e-07
-2.2986e-05
-3.18469e-07
-2.3791e-05
1.73133e-07
-2.47147e-05
6.66407e-07
-2.56988e-05
1.13995e-06
-2.67057e-05
1.58618e-06
-2.77286e-05
2.01576e-06
-2.87693e-05
2.431e-06
-2.98269e-05
2.82999e-06
-3.08989e-05
3.20779e-06
-3.19818e-05
3.55771e-06
-3.30718e-05
3.87229e-06
-3.41649e-05
4.14428e-06
-3.52571e-05
4.36739e-06
-3.63446e-05
4.53703e-06
-3.74238e-05
4.65079e-06
-3.8491e-05
4.70867e-06
-3.95426e-05
4.71298e-06
-4.05747e-05
4.66804e-06
-4.15833e-05
4.57962e-06
-4.25639e-05
4.45438e-06
-4.3512e-05
4.29921e-06
-4.44228e-05
4.12083e-06
-4.52917e-05
3.92539e-06
-4.61145e-05
3.71826e-06
-4.68875e-05
3.50402e-06
-4.76077e-05
3.28639e-06
-4.8273e-05
3.06841e-06
-4.88821e-05
2.85247e-06
-4.94347e-05
2.6405e-06
-4.99313e-05
2.43398e-06
-5.03729e-05
2.23408e-06
-5.07615e-05
2.04172e-06
-5.10991e-05
1.85759e-06
-5.13884e-05
1.6822e-06
-5.1632e-05
1.51585e-06
-5.18327e-05
1.35864e-06
-5.19934e-05
1.2104e-06
-5.21165e-05
1.07073e-06
-5.22046e-05
9.38932e-07
-5.22598e-05
8.13987e-07
-5.2284e-05
6.94568e-07
-5.22788e-05
5.79019e-07
-5.22454e-05
4.65375e-07
-5.21847e-05
3.51352e-07
-5.2097e-05
2.3424e-07
-5.19826e-05
1.11003e-07
-5.18396e-05
-2.28313e-08
-5.16682e-05
-1.66805e-07
-5.14674e-05
-3.27421e-07
-5.12418e-05
-5.02769e-07
-5.09948e-05
-6.934e-07
-5.07284e-05
-8.99861e-07
-5.04444e-05
-1.1219e-06
-5.01455e-05
-1.35817e-06
-4.98348e-05
-1.60585e-06
-4.95166e-05
-1.86047e-06
-4.91963e-05
-2.11575e-06
-4.88801e-05
-2.36361e-06
-4.85758e-05
-2.59411e-06
-4.82923e-05
-2.79554e-06
-4.80399e-05
-2.95448e-06
-4.78298e-05
-3.05608e-06
-4.76744e-05
-3.08444e-06
-4.75862e-05
-3.02329e-06
-4.75773e-05
-2.85698e-06
-4.76584e-05
-2.57194e-06
-4.78368e-05
-2.15868e-06
-4.81154e-05
-1.61415e-06
-4.84914e-05
-9.44205e-07
-4.89528e-05
-1.6738e-07
-4.94631e-05
6.70589e-07
-5.00215e-05
1.52529e-06
-5.06494e-05
2.37594e-06
-5.13548e-05
3.18476e-06
-5.21353e-05
3.9086e-06
-5.29807e-05
4.5122e-06
-5.38717e-05
4.97109e-06
-5.47813e-05
5.27119e-06
-5.56776e-05
5.40742e-06
-5.6527e-05
5.38237e-06
-5.72975e-05
5.20526e-06
-5.79622e-05
4.89145e-06
-5.85008e-05
4.46183e-06
-5.89014e-05
3.94208e-06
-5.91612e-05
3.36143e-06
-5.92855e-05
2.75085e-06
-5.92867e-05
2.1419e-06
-5.91834e-05
1.56452e-06
-5.89971e-05
1.04463e-06
-5.87515e-05
6.05782e-07
-5.8471e-05
2.6529e-07
-5.8174e-05
3.04913e-08
-5.7882e-05
-8.70761e-08
-5.76087e-05
-9.38791e-08
-5.73629e-05
1.88653e-09
-5.71467e-05
1.82085e-07
-5.69657e-05
4.34652e-07
-5.68204e-05
7.3488e-07
-5.67053e-05
1.05477e-06
-5.66119e-05
1.36843e-06
-5.65297e-05
1.65075e-06
-5.64469e-05
1.87874e-06
-5.63516e-05
2.0341e-06
-5.62331e-05
2.10509e-06
-5.60833e-05
2.08851e-06
-5.58989e-05
1.99085e-06
-5.56831e-05
1.8271e-06
-5.54454e-05
1.61711e-06
-5.51999e-05
1.38219e-06
-5.49647e-05
1.14468e-06
-5.47591e-05
9.23109e-07
-5.46008e-05
7.29683e-07
-5.45031e-05
5.69841e-07
-5.44732e-05
4.42677e-07
-5.4512e-05
3.43085e-07
-5.46155e-05
2.64721e-07
-5.4777e-05
2.02367e-07
-5.49863e-05
1.52977e-07
-5.52325e-05
1.14977e-07
-5.55081e-05
8.90287e-08
-5.58092e-05
7.74409e-08
-5.61345e-05
8.30266e-08
-5.64836e-05
1.08809e-07
-5.68566e-05
1.57956e-07
-5.72541e-05
2.33446e-07
-5.7677e-05
3.37799e-07
-5.8125e-05
4.72904e-07
-5.85973e-05
6.39314e-07
-5.9092e-05
8.37706e-07
-5.96092e-05
1.06833e-06
-6.01475e-05
1.33123e-06
-6.07051e-05
1.62481e-06
-6.12797e-05
1.94612e-06
-6.18691e-05
2.2912e-06
-6.2471e-05
2.65558e-06
-6.30826e-05
3.03457e-06
-6.37007e-05
3.4237e-06
-6.43209e-05
3.81875e-06
-6.49376e-05
4.2155e-06
-6.5544e-05
4.60951e-06
-6.61324e-05
4.9958e-06
-6.66941e-05
5.36877e-06
-6.72199e-05
5.72206e-06
-6.76999e-05
6.04861e-06
-6.81243e-05
6.34071e-06
-6.84831e-05
6.59032e-06
-6.87668e-05
6.7893e-06
-6.89664e-05
6.92987e-06
-6.90741e-05
7.00499e-06
-6.9083e-05
7.00879e-06
-6.89878e-05
6.93689e-06
-6.87847e-05
6.78667e-06
-6.84718e-05
6.55732e-06
-6.80486e-05
6.24978e-06
-6.7516e-05
5.86656e-06
-6.68762e-05
5.41144e-06
-6.61317e-05
4.88943e-06
-6.52854e-05
4.3069e-06
-6.43412e-05
3.67333e-06
-6.3307e-05
3.00289e-06
-6.21962e-05
2.31305e-06
-6.10376e-05
1.63085e-06
-5.98699e-05
9.69501e-07
-5.8733e-05
3.21347e-07
-5.76994e-05
-3.12807e-07
-5.6847e-05
-9.73457e-07
-5.61483e-05
-1.79051e-06
-5.55251e-05
-2.92206e-06
-5.49373e-05
-4.49843e-06
-5.43254e-05
-6.69161e-06
-5.35903e-05
-9.72403e-06
-5.25732e-05
-1.38644e-05
-5.10345e-05
-1.94007e-05
-4.86416e-05
-2.65713e-05
-4.49748e-05
-3.54261e-05
-3.95618e-05
-4.55689e-05
-3.19631e-05
-5.5677e-05
-2.19696e-05
-6.25846e-05
-1.01303e-05
-5.93882e-05
-3.0544e-05
-4.7688e-06
3.6101e-05
-9.29731e-06
1.84542e-05
-1.31576e-05
1.14706e-05
-1.62652e-05
9.52665e-06
-1.85882e-05
8.12954e-06
-2.01678e-05
6.4117e-06
-2.11133e-05
4.43815e-06
-2.15899e-05
2.45095e-06
-2.17955e-05
6.93528e-07
-2.19217e-05
-6.59617e-07
-2.21025e-05
-1.54812e-06
-2.24026e-05
-2.01588e-06
-2.28378e-05
-2.15612e-06
-2.33992e-05
-2.06605e-06
-2.40709e-05
-1.8241e-06
-2.48382e-05
-1.48672e-06
-2.56924e-05
-1.08669e-06
-2.66361e-05
-6.35957e-07
-2.76813e-05
-1.4167e-07
-2.88263e-05
3.75483e-07
-3.00266e-05
8.82716e-07
-3.12153e-05
1.36289e-06
-3.23662e-05
1.81855e-06
-3.34867e-05
2.26189e-06
-3.45925e-05
2.69354e-06
-3.56881e-05
3.11303e-06
-3.67734e-05
3.51788e-06
-3.78456e-05
3.90373e-06
-3.89011e-05
4.26479e-06
-3.99365e-05
4.59437e-06
-4.09487e-05
4.88552e-06
-4.19354e-05
5.1317e-06
-4.28949e-05
5.32737e-06
-4.38263e-05
5.46855e-06
-4.47288e-05
5.55323e-06
-4.56021e-05
5.5815e-06
-4.64452e-05
5.55554e-06
-4.72572e-05
5.47928e-06
-4.80364e-05
5.35799e-06
-4.87807e-05
5.19783e-06
-4.94876e-05
5.00533e-06
-5.01545e-05
4.787e-06
-5.07788e-05
4.54902e-06
-5.13582e-05
4.29704e-06
-5.18907e-05
4.03609e-06
-5.23752e-05
3.77055e-06
-5.28112e-05
3.50414e-06
-5.31989e-05
3.24e-06
-5.35393e-05
2.98071e-06
-5.38338e-05
2.72841e-06
-5.40844e-05
2.48473e-06
-5.42937e-05
2.25096e-06
-5.44641e-05
2.02805e-06
-5.45985e-05
1.81663e-06
-5.46996e-05
1.61707e-06
-5.47703e-05
1.42937e-06
-5.4813e-05
1.25328e-06
-5.48303e-05
1.08817e-06
-5.48243e-05
9.33126e-07
-5.4797e-05
7.86907e-07
-5.47501e-05
6.47937e-07
-5.46851e-05
5.14331e-07
-5.46033e-05
3.83929e-07
-5.4506e-05
2.5437e-07
-5.43944e-05
1.23086e-07
-5.42676e-05
-1.52583e-08
-5.41308e-05
-1.59129e-07
-5.39835e-05
-3.1359e-07
-5.38311e-05
-4.79314e-07
-5.36755e-05
-6.57722e-07
-5.35184e-05
-8.49953e-07
-5.33612e-05
-1.05639e-06
-5.32062e-05
-1.27636e-06
-5.30558e-05
-1.50791e-06
-5.29135e-05
-1.74753e-06
-5.27834e-05
-1.99002e-06
-5.26703e-05
-2.22837e-06
-5.25796e-05
-2.45378e-06
-5.25175e-05
-2.65573e-06
-5.24906e-05
-2.82203e-06
-5.25055e-05
-2.93914e-06
-5.25688e-05
-2.99244e-06
-5.26861e-05
-2.96685e-06
-5.28614e-05
-2.84762e-06
-5.30966e-05
-2.62148e-06
-5.339e-05
-2.27812e-06
-5.37362e-05
-1.81191e-06
-5.41255e-05
-1.22407e-06
-5.45429e-05
-5.25867e-07
-5.49727e-05
2.63748e-07
-5.54002e-05
1.09955e-06
-5.58427e-05
1.96952e-06
-5.63046e-05
2.83997e-06
-5.6782e-05
3.66467e-06
-5.72681e-05
4.39764e-06
-5.77524e-05
4.99969e-06
-5.82191e-05
5.44128e-06
-5.86477e-05
5.70353e-06
-5.90145e-05
5.77814e-06
-5.92951e-05
5.66697e-06
-5.94674e-05
5.38144e-06
-5.95139e-05
4.94189e-06
-5.94249e-05
4.37655e-06
-5.91991e-05
3.71982e-06
-5.88448e-05
3.01041e-06
-5.8379e-05
2.28804e-06
-5.7826e-05
1.59152e-06
-5.72175e-05
9.58248e-07
-5.65827e-05
4.11724e-07
-5.59467e-05
-2.87184e-08
-5.53519e-05
-3.28366e-07
-5.48266e-05
-4.93896e-07
-5.43737e-05
-5.39389e-07
-5.39817e-05
-4.85367e-07
-5.36317e-05
-3.47744e-07
-5.33043e-05
-1.44845e-07
-5.29794e-05
1.10325e-07
-5.26478e-05
4.03963e-07
-5.23096e-05
7.17418e-07
-5.19575e-05
1.01731e-06
-5.15811e-05
1.2754e-06
-5.11689e-05
1.46759e-06
-5.07106e-05
1.57696e-06
-5.01992e-05
1.59466e-06
-4.96319e-05
1.52207e-06
-4.90139e-05
1.37355e-06
-4.83613e-05
1.17468e-06
-4.7701e-05
9.56697e-07
-4.70626e-05
7.43085e-07
-4.64787e-05
5.59489e-07
-4.59804e-05
4.22909e-07
-4.55924e-05
3.39302e-07
-4.53305e-05
3.04997e-07
-4.52005e-05
3.09257e-07
-4.51994e-05
3.38225e-07
-4.53188e-05
3.80153e-07
-4.55474e-05
4.2671e-07
-4.58726e-05
4.73619e-07
-4.62823e-05
5.19989e-07
-4.67654e-05
5.67242e-07
-4.7311e-05
6.18012e-07
-4.79086e-05
6.75413e-07
-4.85479e-05
7.42764e-07
-4.92188e-05
8.2352e-07
-4.9912e-05
9.21168e-07
-5.06188e-05
1.03904e-06
-5.13313e-05
1.17997e-06
-5.20437e-05
1.34616e-06
-5.27508e-05
1.53934e-06
-5.34484e-05
1.76055e-06
-5.41325e-05
2.00982e-06
-5.47988e-05
2.28574e-06
-5.54436e-05
2.58561e-06
-5.60633e-05
2.90566e-06
-5.66544e-05
3.24147e-06
-5.72131e-05
3.58825e-06
-5.77355e-05
3.94115e-06
-5.82168e-05
4.2953e-06
-5.86516e-05
4.64575e-06
-5.90337e-05
4.98729e-06
-5.93563e-05
5.31436e-06
-5.96121e-05
5.62088e-06
-5.97937e-05
5.90029e-06
-5.98935e-05
6.14551e-06
-5.99044e-05
6.34914e-06
-5.98197e-05
6.50367e-06
-5.96337e-05
6.6018e-06
-5.93416e-05
6.63688e-06
-5.89402e-05
6.60321e-06
-5.84278e-05
6.49649e-06
-5.78043e-05
6.3141e-06
-5.70716e-05
6.0552e-06
-5.62333e-05