/*--------------------------------*- C++ -*----------------------------------*\
  =========                 |
  \\      /  F ield         | OpenFOAM: The Open Source CFD Toolbox
   \\    /   O peration     | Website:  https://openfoam.org
    \\  /    A nd           | Version:  11
     \\/     M anipulation  |
\*---------------------------------------------------------------------------*/
FoamFile
{
    format      ascii;
    class       volScalarField;
    location    "20";
    object      T;
}
// * * * * * * * * * * * * * * * * * * * * * * * * * * * * * * * * * * * * * //

dimensions      [0 0 0 1 0 0 0];

internalField   nonuniform List<scalar> 
40000
(
298.793
294.587
293.611
293.361
293.29
293.261
293.24
293.215
293.184
293.146
293.1
293.047
292.987
292.922
292.854
292.786
292.719
292.655
292.594
292.537
292.484
292.434
292.389
292.346
292.307
292.271
292.236
292.204
292.173
292.143
292.115
292.088
292.062
292.038
292.014
291.991
291.969
291.947
291.925
291.904
291.882
291.861
291.839
291.816
291.793
291.769
291.745
291.72
291.695
291.669
291.642
291.615
291.588
291.56
291.533
291.505
291.477
291.449
291.422
291.394
291.367
291.34
291.313
291.287
291.261
291.235
291.21
291.186
291.163
291.14
291.118
291.096
291.076
291.056
291.038
291.02
291.003
290.987
290.972
290.959
290.946
290.934
290.922
290.912
290.902
290.892
290.882
290.873
290.864
290.855
290.846
290.836
290.827
290.818
290.809
290.8
290.792
290.783
290.776
290.769
290.763
290.758
290.754
290.752
290.75
290.75
290.75
290.751
290.753
290.755
290.757
290.76
290.763
290.766
290.769
290.772
290.775
290.778
290.781
290.784
290.787
290.791
290.795
290.8
290.805
290.811
290.817
290.824
290.83
290.836
290.842
290.847
290.851
290.854
290.856
290.856
290.856
290.854
290.852
290.849
290.844
290.839
290.833
290.827
290.819
290.811
290.802
290.793
290.783
290.773
290.762
290.752
290.74
290.729
290.717
290.704
290.69
290.676
290.66
290.643
290.624
290.604
290.583
290.56
290.535
290.509
290.483
290.456
290.43
290.405
290.381
290.359
290.339
290.321
290.304
290.288
290.273
290.259
290.246
290.233
290.221
290.208
290.195
290.182
290.169
290.156
290.142
290.128
290.113
290.097
290.078
290.052
290.016
289.966
289.897
289.802
289.672
289.487
289.195
288.621
299.072
294.552
293.532
293.298
293.227
293.178
293.125
293.061
292.987
292.903
292.81
292.711
292.611
292.515
292.428
292.35
292.283
292.224
292.174
292.131
292.093
292.061
292.034
292.01
291.989
291.971
291.955
291.94
291.926
291.912
291.9
291.887
291.875
291.863
291.85
291.837
291.823
291.807
291.789
291.77
291.749
291.727
291.702
291.677
291.65
291.622
291.593
291.564
291.534
291.505
291.476
291.448
291.419
291.392
291.365
291.338
291.312
291.287
291.263
291.239
291.216
291.194
291.173
291.152
291.132
291.113
291.094
291.077
291.06
291.045
291.03
291.016
291.003
290.991
290.98
290.969
290.96
290.951
290.942
290.934
290.926
290.918
290.91
290.902
290.894
290.885
290.876
290.866
290.856
290.846
290.836
290.827
290.818
290.81
290.803
290.798
290.794
290.791
290.79
290.791
290.794
290.798
290.804
290.81
290.817
290.824
290.832
290.839
290.846
290.852
290.858
290.863
290.868
290.872
290.876
290.88
290.884
290.888
290.893
290.898
290.903
290.91
290.916
290.924
290.931
290.938
290.944
290.95
290.955
290.958
290.96
290.961
290.96
290.957
290.954
290.949
290.944
290.937
290.93
290.922
290.914
290.904
290.893
290.882
290.87
290.858
290.845
290.832
290.819
290.805
290.791
290.778
290.764
290.749
290.734
290.718
290.702
290.685
290.668
290.651
290.633
290.616
290.598
290.582
290.566
290.551
290.537
290.526
290.516
290.508
290.503
290.5
290.499
290.499
290.501
290.505
290.51
290.516
290.522
290.529
290.537
290.545
290.552
290.56
290.568
290.575
290.581
290.587
290.59
290.584
290.566
290.535
290.485
290.412
290.306
290.157
289.95
289.662
289.259
288.593
299.326
294.546
293.454
293.201
293.095
293.002
292.896
292.775
292.643
292.504
292.364
292.231
292.114
292.014
291.932
291.866
291.813
291.771
291.738
291.712
291.693
291.678
291.667
291.66
291.656
291.653
291.653
291.654
291.657
291.661
291.665
291.669
291.671
291.671
291.669
291.662
291.653
291.639
291.622
291.6
291.576
291.549
291.52
291.49
291.459
291.428
291.398
291.368
291.34
291.312
291.286
291.261
291.238
291.216
291.195
291.176
291.157
291.14
291.123
291.108
291.094
291.08
291.068
291.056
291.045
291.035
291.026
291.018
291.01
291.004
290.998
290.993
290.989
290.984
290.981
290.977
290.973
290.969
290.964
290.959
290.953
290.946
290.939
290.93
290.921
290.91
290.899
290.887
290.875
290.864
290.854
290.846
290.842
290.841
290.842
290.846
290.853
290.863
290.875
290.889
290.905
290.921
290.939
290.956
290.972
290.988
291.002
291.015
291.027
291.037
291.045
291.052
291.058
291.063
291.067
291.072
291.076
291.081
291.086
291.092
291.099
291.107
291.115
291.123
291.131
291.139
291.145
291.15
291.154
291.155
291.155
291.153
291.148
291.142
291.135
291.126
291.116
291.106
291.094
291.081
291.068
291.053
291.038
291.022
291.006
290.99
290.974
290.957
290.941
290.925
290.909
290.892
290.876
290.86
290.845
290.829
290.814
290.8
290.787
290.775
290.764
290.754
290.746
290.74
290.737
290.736
290.738
290.742
290.75
290.76
290.773
290.789
290.808
290.829
290.853
290.878
290.904
290.932
290.96
290.988
291.016
291.044
291.07
291.095
291.117
291.137
291.153
291.164
291.16
291.146
291.119
291.074
291.005
290.903
290.759
290.557
290.28
289.904
289.398
288.693
299.502
294.522
293.365
293.078
292.931
292.787
292.628
292.457
292.283
292.113
291.959
291.829
291.724
291.643
291.58
291.533
291.498
291.472
291.454
291.442
291.435
291.431
291.431
291.434
291.438
291.445
291.456
291.468
291.481
291.495
291.506
291.516
291.522
291.524
291.521
291.514
291.502
291.485
291.464
291.44
291.414
291.386
291.357
291.329
291.302
291.276
291.252
291.229
291.208
291.19
291.172
291.157
291.142
291.13
291.118
291.107
291.098
291.09
291.082
291.075
291.069
291.064
291.06
291.056
291.053
291.051
291.049
291.048
291.048
291.048
291.048
291.048
291.048
291.047
291.047
291.045
291.043
291.041
291.037
291.032
291.026
291.018
291.01
291
290.989
290.978
290.966
290.955
290.944
290.936
290.932
290.932
290.936
290.943
290.954
290.968
290.987
291.008
291.032
291.057
291.084
291.111
291.138
291.164
291.188
291.211
291.231
291.249
291.265
291.278
291.288
291.297
291.303
291.308
291.313
291.317
291.322
291.328
291.334
291.342
291.35
291.36
291.371
291.382
291.393
291.404
291.413
291.42
291.425
291.428
291.428
291.425
291.419
291.411
291.4
291.388
291.374
291.358
291.342
291.325
291.307
291.288
291.269
291.25
291.23
291.211
291.191
291.172
291.153
291.134
291.115
291.097
291.08
291.063
291.048
291.034
291.021
291.01
291.001
290.994
290.99
290.988
290.988
290.992
290.999
291.01
291.024
291.042
291.064
291.089
291.118
291.15
291.185
291.223
291.264
291.306
291.35
291.394
291.438
291.481
291.522
291.561
291.597
291.629
291.657
291.678
291.693
291.693
291.685
291.665
291.629
291.572
291.487
291.363
291.187
290.944
290.611
290.165
289.578
288.798
299.633
294.505
293.293
292.964
292.77
292.58
292.381
292.18
291.989
291.818
291.677
291.569
291.487
291.428
291.385
291.355
291.334
291.32
291.312
291.308
291.308
291.31
291.315
291.323
291.334
291.347
291.361
291.375
291.388
291.4
291.409
291.414
291.416
291.414
291.408
291.397
291.382
291.365
291.345
291.324
291.302
291.281
291.26
291.241
291.224
291.208
291.195
291.183
291.173
291.164
291.156
291.15
291.145
291.141
291.137
291.134
291.132
291.131
291.13
291.129
291.129
291.129
291.13
291.131
291.133
291.135
291.137
291.14
291.142
291.145
291.147
291.148
291.15
291.151
291.151
291.15
291.149
291.146
291.143
291.138
291.132
291.126
291.118
291.109
291.1
291.091
291.082
291.075
291.07
291.068
291.071
291.077
291.087
291.101
291.119
291.142
291.169
291.198
291.231
291.265
291.3
291.335
291.37
291.403
291.434
291.463
291.489
291.511
291.53
291.546
291.559
291.569
291.576
291.582
291.587
291.592
291.598
291.605
291.614
291.624
291.636
291.65
291.666
291.682
291.699
291.715
291.729
291.741
291.751
291.757
291.759
291.756
291.75
291.74
291.727
291.711
291.693
291.673
291.652
291.63
291.608
291.585
291.563
291.54
291.517
291.494
291.471
291.447
291.424
291.402
291.381
291.361
291.343
291.326
291.311
291.298
291.287
291.279
291.273
291.27
291.27
291.273
291.28
291.291
291.305
291.324
291.346
291.373
291.405
291.44
291.479
291.522
291.568
291.617
291.668
291.721
291.775
291.829
291.882
291.934
291.982
292.027
292.067
292.101
292.129
292.147
292.153
292.151
292.14
292.117
292.077
292.014
291.919
291.781
291.583
291.306
290.927
290.418
289.751
288.871
299.739
294.497
293.234
292.865
292.631
292.406
292.181
291.968
291.779
291.624
291.507
291.423
291.364
291.324
291.296
291.279
291.267
291.261
291.259
291.259
291.263
291.269
291.277
291.286
291.297
291.308
291.318
291.328
291.337
291.343
291.347
291.348
291.346
291.342
291.334
291.324
291.313
291.3
291.287
291.274
291.262
291.251
291.242
291.234
291.228
291.224
291.221
291.219
291.218
291.218
291.218
291.219
291.22
291.222
291.224
291.226
291.228
291.23
291.232
291.235
291.237
291.24
291.243
291.246
291.249
291.252
291.256
291.259
291.262
291.264
291.267
291.269
291.271
291.272
291.273
291.273
291.273
291.271
291.269
291.266
291.262
291.257
291.252
291.247
291.241
291.236
291.233
291.231
291.231
291.235
291.242
291.253
291.267
291.286
291.31
291.338
291.37
291.406
291.444
291.485
291.526
291.566
291.606
291.645
291.681
291.713
291.743
291.768
291.789
291.807
291.821
291.832
291.838
291.844
291.848
291.853
291.86
291.869
291.88
291.894
291.911
291.93
291.951
291.974
291.997
292.02
292.042
292.062
292.077
292.089
292.095
292.096
292.092
292.084
292.071
292.055
292.036
292.014
291.991
291.966
291.939
291.912
291.883
291.854
291.826
291.797
291.769
291.742
291.717
291.693
291.67
291.649
291.63
291.614
291.599
291.587
291.578
291.571
291.568
291.567
291.57
291.577
291.587
291.602
291.62
291.643
291.67
291.701
291.737
291.776
291.82
291.867
291.918
291.971
292.026
292.083
292.141
292.199
292.256
292.311
292.363
292.41
292.452
292.484
292.505
292.517
292.524
292.524
292.515
292.494
292.455
292.392
292.295
292.15
291.939
291.638
291.221
290.656
289.909
288.919
299.832
294.497
293.186
292.782
292.517
292.268
292.03
291.816
291.64
291.507
291.414
291.352
291.312
291.286
291.27
291.261
291.256
291.254
291.256
291.259
291.264
291.27
291.276
291.284
291.291
291.298
291.305
291.311
291.316
291.319
291.321
291.321
291.319
291.316
291.312
291.308
291.303
291.299
291.296
291.293
291.292
291.292
291.294
291.297
291.301
291.306
291.311
291.317
291.322
291.328
291.334
291.339
291.344
291.349
291.353
291.357
291.36
291.363
291.366
291.369
291.371
291.373
291.376
291.378
291.38
291.382
291.385
291.387
291.389
291.391
291.393
291.395
291.396
291.398
291.399
291.4
291.401
291.401
291.4
291.4
291.399
291.397
291.396
291.394
291.393
291.393
291.394
291.396
291.401
291.409
291.42
291.433
291.452
291.475
291.502
291.534
291.57
291.609
291.651
291.695
291.739
291.783
291.825
291.866
291.903
291.937
291.966
291.991
292.011
292.026
292.034
292.039
292.043
292.047
292.051
292.056
292.063
292.071
292.083
292.099
292.118
292.14
292.164
292.191
292.219
292.247
292.274
292.299
292.322
292.34
292.353
292.36
292.362
292.359
292.352
292.341
292.327
292.309
292.289
292.265
292.239
292.211
292.181
292.149
292.118
292.086
292.056
292.027
291.999
291.974
291.95
291.929
291.911
291.895
291.881
291.871
291.863
291.859
291.857
291.859
291.864
291.872
291.884
291.9
291.92
291.944
291.972
292.004
292.039
292.079
292.122
292.168
292.217
292.268
292.321
292.376
292.432
292.488
292.545
292.6
292.653
292.698
292.732
292.754
292.771
292.785
292.794
292.799
292.797
292.784
292.753
292.698
292.607
292.464
292.249
291.935
291.49
290.875
290.05
288.952
299.916
294.503
293.149
292.715
292.427
292.162
291.919
291.714
291.556
291.445
291.373
291.329
291.304
291.289
291.282
291.279
291.278
291.279
291.281
291.284
291.288
291.293
291.298
291.304
291.309
291.315
291.32
291.325
291.329
291.332
291.335
291.338
291.341
291.343
291.346
291.349
291.354
291.359
291.365
291.373
291.382
291.392
291.403
291.415
291.426
291.438
291.45
291.461
291.472
291.482
291.491
291.499
291.506
291.512
291.516
291.52
291.523
291.524
291.525
291.526
291.526
291.525
291.524
291.523
291.522
291.522
291.521
291.52
291.52
291.519
291.519
291.519
291.52
291.52
291.521
291.521
291.522
291.523
291.524
291.525
291.527
291.528
291.53
291.532
291.536
291.54
291.545
291.552
291.561
291.572
291.585
291.602
291.623
291.649
291.679
291.713
291.751
291.792
291.835
291.88
291.925
291.969
292.012
292.052
292.088
292.121
292.149
292.169
292.182
292.191
292.196
292.199
292.2
292.2
292.2
292.201
292.203
292.208
292.215
292.225
292.24
292.259
292.281
292.305
292.332
292.359
292.385
292.41
292.432
292.452
292.47
292.485
292.497
292.506
292.511
292.513
292.511
292.505
292.496
292.483
292.466
292.446
292.422
292.396
292.367
292.338
292.308
292.279
292.251
292.225
292.201
292.18
292.162
292.147
292.135
292.126
292.12
292.117
292.117
292.12
292.127
292.137
292.15
292.166
292.186
292.209
292.236
292.266
292.299
292.335
292.374
292.416
292.459
292.504
292.551
292.599
292.647
292.698
292.749
292.798
292.839
292.872
292.898
292.919
292.936
292.951
292.965
292.976
292.983
292.981
292.965
292.925
292.848
292.717
292.508
292.192
291.727
291.07
290.173
288.976
299.993
294.516
293.121
292.662
292.356
292.082
291.843
291.651
291.513
291.423
291.37
291.341
291.326
291.319
291.317
291.317
291.318
291.32
291.323
291.327
291.332
291.337
291.342
291.348
291.354
291.36
291.367
291.373
291.38
291.387
291.395
291.403
291.411
291.421
291.432
291.444
291.457
291.471
291.487
291.503
291.521
291.539
291.558
291.576
291.595
291.613
291.63
291.646
291.66
291.674
291.685
291.695
291.704
291.71
291.715
291.717
291.719
291.718
291.716
291.713
291.709
291.704
291.698
291.692
291.686
291.679
291.673
291.667
291.662
291.657
291.652
291.648
291.644
291.641
291.638
291.636
291.635
291.634
291.634
291.635
291.637
291.639
291.643
291.648
291.655
291.662
291.671
291.681
291.694
291.707
291.723
291.743
291.766
291.794
291.825
291.859
291.897
291.937
291.979
292.021
292.063
292.104
292.142
292.177
292.207
292.233
292.253
292.27
292.284
292.297
292.307
292.315
292.321
292.325
292.327
292.328
292.328
292.328
292.329
292.332
292.338
292.347
292.36
292.377
292.396
292.416
292.437
292.458
292.478
292.498
292.517
292.535
292.552
292.567
292.58
292.591
292.6
292.606
292.609
292.609
292.606
292.598
292.587
292.572
292.554
292.532
292.509
292.485
292.461
292.437
292.415
292.395
292.377
292.362
292.35
292.342
292.336
292.334
292.335
292.339
292.347
292.357
292.37
292.386
292.405
292.427
292.451
292.478
292.508
292.539
292.573
292.608
292.644
292.681
292.72
292.759
292.8
292.841
292.878
292.911
292.94
292.966
292.989
293.008
293.025
293.041
293.056
293.071
293.085
293.094
293.094
293.074
293.017
292.905
292.712
292.403
291.93
291.24
290.279
288.993
300.067
294.533
293.102
292.622
292.304
292.027
291.794
291.618
291.498
291.426
291.387
291.368
291.361
291.36
291.361
291.365
291.369
291.374
291.379
291.385
291.392
291.4
291.407
291.416
291.425
291.434
291.445
291.456
291.467
291.48
291.493
291.508
291.524
291.541
291.56
291.579
291.601
291.623
291.646
291.67
291.695
291.719
291.744
291.769
291.792
291.815
291.837
291.857
291.875
291.892
291.906
291.918
291.928
291.936
291.941
291.944
291.944
291.943
291.939
291.933
291.926
291.917
291.906
291.895
291.883
291.87
291.857
291.844
291.831
291.819
291.807
291.796
291.785
291.775
291.766
291.757
291.75
291.743
291.738
291.734
291.732
291.732
291.734
291.738
291.744
291.753
291.763
291.775
291.79
291.805
291.823
291.845
291.869
291.896
291.926
291.959
291.993
292.029
292.065
292.1
292.134
292.165
292.192
292.217
292.238
292.259
292.279
292.299
292.319
292.339
292.358
292.376
292.391
292.405
292.416
292.425
292.432
292.437
292.441
292.444
292.448
292.452
292.459
292.467
292.478
292.491
292.505
292.52
292.536
292.552
292.569
292.585
292.6
292.615
292.629
292.642
292.653
292.664
292.673
292.68
292.685
292.688
292.687
292.684
292.677
292.667
292.654
292.639
292.622
292.604
292.587
292.57
292.554
292.54
292.529
292.521
292.515
292.513
292.514
292.517
292.524
292.533
292.545
292.559
292.576
292.596
292.617
292.641
292.666
292.692
292.72
292.749
292.779
292.809
292.841
292.874
292.904
292.932
292.958
292.982
293.004
293.025
293.043
293.06
293.075
293.09
293.105
293.12
293.135
293.149
293.16
293.156
293.121
293.033
292.862
292.569
292.097
291.382
290.366
289.006
300.138
294.554
293.089
292.593
292.266
291.99
291.766
291.604
291.5
291.441
291.413
291.402
291.401
291.405
291.411
291.419
291.427
291.436
291.445
291.455
291.466
291.478
291.49
291.503
291.516
291.531
291.547
291.563
291.581
291.6
291.62
291.641
291.663
291.687
291.712
291.739
291.766
291.794
291.822
291.851
291.881
291.91
291.938
291.966
291.993
292.018
292.043
292.065
292.086
292.105
292.122
292.136
292.149
292.158
292.165
292.169
292.171
292.17
292.167
292.161
292.154
292.144
292.133
292.119
292.105
292.089
292.073
292.056
292.038
292.019
292
291.981
291.962
291.944
291.925
291.907
291.89
291.874
291.858
291.845
291.833
291.824
291.817
291.814
291.814
291.818
291.825
291.835
291.848
291.863
291.881
291.902
291.925
291.95
291.978
292.006
292.035
292.064
292.092
292.118
292.141
292.162
292.182
292.201
292.223
292.246
292.27
292.297
292.324
292.351
292.378
292.403
292.427
292.449
292.469
292.486
292.501
292.514
292.525
292.535
292.543
292.551
292.558
292.566
292.575
292.585
292.595
292.606
292.618
292.63
292.643
292.655
292.668
292.68
292.691
292.702
292.713
292.723
292.732
292.74
292.747
292.753
292.757
292.76
292.76
292.758
292.754
292.747
292.738
292.728
292.717
292.706
292.694
292.684
292.675
292.668
292.663
292.66
292.66
292.662
292.667
292.675
292.685
292.697
292.711
292.728
292.746
292.765
292.786
292.808
292.831
292.855
292.879
292.905
292.932
292.956
292.979
293
293.019
293.038
293.055
293.071
293.086
293.099
293.113
293.125
293.138
293.151
293.165
293.179
293.191
293.195
293.175
293.108
292.962
292.691
292.229
291.499
290.436
289.015
300.207
294.578
293.083
292.573
292.242
291.968
291.753
291.603
291.51
291.462
291.441
291.438
291.442
291.451
291.462
291.475
291.488
291.501
291.516
291.531
291.546
291.563
291.58
291.598
291.617
291.637
291.658
291.68
291.704
291.728
291.753
291.779
291.806
291.835
291.864
291.893
291.923
291.954
291.984
292.015
292.045
292.074
292.103
292.13
292.157
292.182
292.206
292.228
292.249
292.267
292.283
292.297
292.309
292.319
292.328
292.335
292.34
292.343
292.345
292.344
292.342
292.337
292.331
292.323
292.312
292.3
292.286
292.27
292.253
292.235
292.216
292.196
292.174
292.151
292.127
292.102
292.076
292.049
292.023
291.997
291.972
291.949
291.929
291.911
291.898
291.888
291.884
291.884
291.889
291.898
291.911
291.927
291.946
291.967
291.989
292.012
292.035
292.057
292.078
292.097
292.115
292.134
292.155
292.178
292.205
292.235
292.266
292.3
292.334
292.367
292.4
292.431
292.461
292.488
292.513
292.536
292.556
292.575
292.591
292.606
292.619
292.631
292.642
292.653
292.664
292.674
292.684
292.695
292.706
292.716
292.727
292.738
292.748
292.758
292.767
292.776
292.785
292.793
292.8
292.807
292.813
292.818
292.823
292.826
292.829
292.83
292.83
292.828
292.825
292.821
292.816
292.81
292.803
292.797
292.791
292.786
292.782
292.78
292.78
292.782
292.786
292.792
292.8
292.81
292.822
292.835
292.851
292.867
292.885
292.903
292.922
292.942
292.962
292.983
293.002
293.021
293.039
293.056
293.071
293.086
293.1
293.112
293.124
293.136
293.146
293.157
293.167
293.178
293.19
293.201
293.211
293.214
293.199
293.146
293.023
292.776
292.329
291.59
290.491
289.021
300.275
294.607
293.083
292.562
292.229
291.958
291.751
291.61
291.526
291.485
291.47
291.472
291.481
291.495
291.511
291.528
291.546
291.565
291.584
291.603
291.624
291.645
291.667
291.69
291.713
291.738
291.763
291.788
291.815
291.842
291.87
291.898
291.927
291.956
291.985
292.014
292.044
292.072
292.101
292.129
292.156
292.183
292.209
292.234
292.258
292.281
292.302
292.322
292.341
292.359
292.376
292.391
292.406
292.419
292.432
292.443
292.452
292.46
292.467
292.472
292.475
292.477
292.477
292.476
292.472
292.467
292.46
292.451
292.44
292.427
292.411
292.394
292.375
292.355
292.334
292.311
292.287
292.26
292.232
292.201
292.169
292.136
292.102
292.07
292.039
292.01
291.986
291.967
291.954
291.947
291.946
291.951
291.96
291.972
291.987
292.003
292.02
292.038
292.055
292.073
292.094
292.119
292.146
292.178
292.213
292.25
292.289
292.329
292.368
292.407
292.444
292.479
292.512
292.542
292.569
292.595
292.618
292.638
292.657
292.674
292.69
292.704
292.718
292.73
292.743
292.754
292.766
292.777
292.788
292.798
292.808
292.818
292.828
292.837
292.845
292.853
292.861
292.867
292.873
292.879
292.884
292.888
292.891
292.894
292.897
292.898
292.899
292.899
292.899
292.897
292.895
292.893
292.89
292.887
292.884
292.881
292.88
292.879
292.88
292.882
292.886
292.891
292.898
292.906
292.916
292.928
292.94
292.954
292.969
292.984
293
293.016
293.032
293.048
293.064
293.078
293.093
293.106
293.118
293.13
293.141
293.151
293.16
293.169
293.177
293.186
293.194
293.202
293.211
293.22
293.226
293.226
293.21
293.164
293.056
292.832
292.401
291.66
290.532
289.026
300.342
294.639
293.09
292.559
292.225
291.958
291.757
291.622
291.545
291.508
291.498
291.503
291.516
291.534
291.554
291.575
291.597
291.62
291.643
291.666
291.69
291.715
291.74
291.765
291.791
291.817
291.843
291.87
291.897
291.924
291.951
291.978
292.005
292.032
292.058
292.085
292.111
292.136
292.162
292.186
292.211
292.235
292.259
292.282
292.305
292.328
292.35
292.371
292.392
292.412
292.432
292.451
292.468
292.485
292.501
292.516
292.529
292.541
292.552
292.561
292.569
292.576
292.581
292.585
292.588
292.588
292.587
292.585
292.581
292.575
292.567
292.557
292.545
292.53
292.513
292.494
292.473
292.45
292.426
292.399
292.369
292.337
292.302
292.265
292.226
292.186
292.148
292.112
292.08
292.054
292.035
292.022
292.015
292.013
292.016
292.023
292.032
292.046
292.064
292.087
292.114
292.146
292.182
292.221
292.262
292.305
292.349
292.393
292.435
292.476
292.514
292.55
292.583
292.614
292.642
292.667
292.69
292.711
292.73
292.748
292.764
292.779
292.792
292.806
292.818
292.83
292.842
292.853
292.863
292.874
292.884
292.893
292.902
292.911
292.919
292.926
292.933
292.939
292.945
292.95
292.954
292.957
292.96
292.962
292.964
292.965
292.966
292.967
292.967
292.966
292.966
292.965
292.964
292.963
292.962
292.961
292.961
292.962
292.964
292.966
292.97
292.975
292.981
292.989
292.997
293.007
293.018
293.029
293.041
293.054
293.067
293.08
293.092
293.105
293.117
293.129
293.14
293.15
293.16
293.169
293.177
293.185
293.192
293.198
293.205
293.211
293.217
293.223
293.23
293.235
293.239
293.235
293.216
293.171
293.074
292.866
292.452
291.711
290.562
289.029
300.411
294.676
293.102
292.564
292.23
291.966
291.769
291.639
291.564
291.53
291.522
291.53
291.546
291.566
291.589
291.613
291.638
291.663
291.688
291.714
291.739
291.765
291.79
291.816
291.841
291.867
291.892
291.917
291.941
291.966
291.99
292.014
292.038
292.061
292.085
292.108
292.131
292.155
292.179
292.203
292.227
292.252
292.276
292.301
292.327
292.352
292.377
292.401
292.425
292.449
292.472
292.494
292.515
292.535
292.553
292.571
292.587
292.603
292.616
292.629
292.64
292.65
292.659
292.667
292.673
292.678
292.681
292.684
292.685
292.684
292.682
292.678
292.673
292.666
292.656
292.644
292.629
292.612
292.593
292.571
292.548
292.521
292.491
292.458
292.423
292.385
292.345
292.304
292.265
292.228
292.195
292.168
292.146
292.129
292.119
292.114
292.117
292.129
292.147
292.172
292.202
292.236
292.275
292.316
292.36
292.404
292.448
292.49
292.532
292.571
292.607
292.641
292.673
292.701
292.727
292.751
292.772
292.792
292.81
292.826
292.841
292.855
292.868
292.88
292.892
292.903
292.914
292.924
292.934
292.944
292.953
292.962
292.97
292.978
292.986
292.993
292.999
293.005
293.01
293.014
293.018
293.021
293.024
293.026
293.028
293.029
293.03
293.03
293.03
293.03
293.03
293.03
293.03
293.03
293.03
293.031
293.031
293.033
293.035
293.038
293.042
293.047
293.052
293.059
293.066
293.074
293.083
293.093
293.103
293.113
293.123
293.133
293.143
293.153
293.162
293.171
293.179
293.187
293.194
293.201
293.207
293.213
293.218
293.223
293.228
293.232
293.236
293.241
293.245
293.248
293.248
293.241
293.221
293.175
293.081
292.887
292.486
291.747
290.584
289.032
300.481
294.717
293.119
292.576
292.243
291.982
291.787
291.658
291.585
291.551
291.543
291.551
291.568
291.59
291.615
291.64
291.666
291.692
291.718
291.743
291.768
291.793
291.817
291.841
291.864
291.886
291.908
291.93
291.951
291.972
291.993
292.014
292.035
292.056
292.078
292.1
292.124
292.148
292.173
292.199
292.225
292.253
292.282
292.31
292.339
292.368
292.397
292.425
292.453
292.48
292.506
292.531
292.555
292.577
292.599
292.619
292.638
292.655
292.671
292.686
292.7
292.712
292.723
292.733
292.741
292.749
292.755
292.761
292.765
292.768
292.77
292.77
292.77
292.768
292.764
292.759
292.752
292.742
292.729
292.714
292.697
292.678
292.656
292.631
292.603
292.573
292.54
292.505
292.469
292.433
292.399
292.367
292.339
292.316
292.298
292.289
292.288
292.295
292.309
292.329
292.355
292.387
292.421
292.459
292.497
292.537
292.575
292.613
292.649
292.683
292.715
292.745
292.772
292.796
292.819
292.84
292.858
292.875
292.891
292.905
292.918
292.93
292.941
292.952
292.962
292.972
292.981
292.99
292.999
293.007
293.015
293.023
293.03
293.038
293.044
293.051
293.057
293.062
293.067
293.071
293.075
293.078
293.081
293.083
293.084
293.086
293.087
293.087
293.088
293.088
293.088
293.088
293.089
293.089
293.09
293.091
293.092
293.094
293.096
293.099
293.103
293.107
293.112
293.118
293.124
293.131
293.138
293.145
293.153
293.161
293.169
293.177
293.184
293.192
293.199
293.205
293.211
293.217
293.222
293.227
293.231
293.235
293.239
293.242
293.246
293.249
293.252
293.254
293.257
293.258
293.255
293.247
293.225
293.178
293.085
292.897
292.508
291.772
290.599
289.034
300.554
294.763
293.143
292.594
292.263
292.004
291.811
291.681
291.606
291.57
291.561
291.568
291.585
291.606
291.631
291.656
291.682
291.707
291.732
291.755
291.778
291.8
291.822
291.842
291.861
291.88
291.898
291.916
291.934
291.952
291.971
291.99
292.01
292.031
292.054
292.077
292.103
292.13
292.158
292.188
292.219
292.252
292.284
292.318
292.351
292.384
292.417
292.449
292.48
292.51
292.539
292.567
292.593
292.618
292.642
292.664
292.685
292.704
292.722
292.738
292.753
292.767
292.78
292.791
292.801
292.81
292.818
292.825
292.831
292.836
292.841
292.844
292.846
292.847
292.847
292.846
292.844
292.84
292.835
292.827
292.817
292.804
292.789
292.773
292.754
292.732
292.709
292.683
292.657
292.629
292.601
292.575
292.55
292.529
292.513
292.505
292.501
292.504
292.513
292.527
292.546
292.57
292.596
292.625
292.655
292.685
292.716
292.745
292.774
292.801
292.826
292.85
292.872
292.892
292.91
292.926
292.942
292.956
292.968
292.98
292.99
293
293.01
293.018
293.027
293.035
293.042
293.05
293.057
293.064
293.071
293.077
293.083
293.09
293.095
293.101
293.106
293.111
293.115
293.119
293.123
293.126
293.128
293.131
293.132
293.134
293.135
293.136
293.137
293.137
293.138
293.138
293.139
293.139
293.14
293.141
293.143
293.145
293.147
293.15
293.153
293.157
293.161
293.165
293.17
293.176
293.181
293.187
293.193
293.199
293.205
293.211
293.216
293.222
293.227
293.231
293.235
293.239
293.243
293.246
293.25
293.252
293.255
293.257
293.26
293.262
293.263
293.265
293.266
293.265
293.261
293.251
293.228
293.181
293.089
292.902
292.521
291.79
290.61
289.035
300.63
294.815
293.172
292.619
292.29
292.033
291.839
291.707
291.628
291.589
291.576
291.58
291.595
291.615
291.638
291.662
291.686
291.709
291.732
291.753
291.773
291.791
291.809
291.825
291.841
291.856
291.871
291.886
291.901
291.918
291.935
291.955
291.975
291.998
292.023
292.05
292.079
292.11
292.143
292.178
292.214
292.251
292.289
292.327
292.364
292.402
292.438
292.474
292.509
292.542
292.574
292.604
292.633
292.66
292.685
292.709
292.731
292.752
292.771
292.788
292.804
292.819
292.832
292.845
292.856
292.866
292.875
292.883
292.89
292.896
292.902
292.906
292.91
292.913
292.915
292.916
292.917
292.916
292.915
292.912
292.909
292.903
292.895
292.885
292.873
292.86
292.845
292.828
292.811
292.792
292.774
292.755
292.739
292.725
292.715
292.709
292.706
292.707
292.712
292.72
292.733
292.748
292.766
292.786
292.807
292.829
292.85
292.871
292.892
292.912
292.931
292.948
292.964
292.979
292.993
293.006
293.018
293.028
293.038
293.047
293.055
293.063
293.07
293.077
293.084
293.09
293.096
293.102
293.107
293.113
293.118
293.124
293.129
293.134
293.139
293.143
293.148
293.152
293.156
293.159
293.163
293.165
293.168
293.17
293.172
293.173
293.175
293.176
293.177
293.177
293.178
293.179
293.18
293.18
293.181
293.183
293.184
293.186
293.188
293.19
293.193
293.196
293.199
293.203
293.207
293.211
293.215
293.219
293.224
293.228
293.232
293.236
293.24
293.244
293.247
293.25
293.253
293.256
293.259
293.261
293.263
293.265
293.267
293.268
293.27
293.271
293.272
293.273
293.272
293.27
293.265
293.254
293.23
293.184
293.091
292.905
292.527
291.801
290.617
289.036
300.71
294.873
293.207
292.651
292.324
292.069
291.874
291.738
291.654
291.608
291.59
291.59
291.601
291.618
291.638
291.66
291.681
291.702
291.721
291.739
291.756
291.771
291.784
291.797
291.809
291.821
291.834
291.847
291.861
291.877
291.895
291.915
291.938
291.964
291.992
292.023
292.056
292.093
292.131
292.171
292.213
292.255
292.298
292.34
292.382
292.424
292.464
292.503
292.541
292.577
292.611
292.644
292.675
292.703
292.73
292.755
292.778
292.8
292.819
292.837
292.854
292.869
292.883
292.896
292.907
292.918
292.927
292.936
292.943
292.95
292.956
292.961
292.966
292.97
292.973
292.976
292.978
292.979
292.98
292.98
292.979
292.977
292.975
292.971
292.966
292.958
292.95
292.94
292.93
292.919
292.909
292.899
292.891
292.883
292.877
292.873
292.871
292.872
292.875
292.881
292.889
292.898
292.91
292.923
292.936
292.951
292.965
292.98
292.994
293.008
293.021
293.033
293.045
293.055
293.065
293.075
293.083
293.091
293.098
293.105
293.111
293.117
293.122