/*--------------------------------*- C++ -*----------------------------------*\
  =========                 |
  \\      /  F ield         | OpenFOAM: The Open Source CFD Toolbox
   \\    /   O peration     | Website:  https://openfoam.org
    \\  /    A nd           | Version:  11
     \\/     M anipulation  |
\*---------------------------------------------------------------------------*/
FoamFile
{
    format      ascii;
    class       volVectorField;
    location    "20";
    object      U;
}
// * * * * * * * * * * * * * * * * * * * * * * * * * * * * * * * * * * * * * //

dimensions      [0 1 -1 0 0 0 0];

internalField   nonuniform List<vector> 
40000
(
(-0.0112726 0.00781095 0)
(-0.0154769 -0.00101056 0)
(-0.0122694 -0.0025138 0)
(-0.00881152 -0.00185343 0)
(-0.00669375 -0.00109755 0)
(-0.00581241 -0.000623706 0)
(-0.00569352 -0.000339519 0)
(-0.00586899 -0.000193812 0)
(-0.00601122 -0.000155714 0)
(-0.00601717 -0.000163266 0)
(-0.00584562 -0.00018084 0)
(-0.00547713 -0.000204574 0)
(-0.00492163 -0.000228976 0)
(-0.00421002 -0.000250131 0)
(-0.00338628 -0.000263985 0)
(-0.00250027 -0.000267448 0)
(-0.00160018 -0.000259212 0)
(-0.000727904 -0.000239664 0)
(8.78673e-05 -0.000210148 0)
(0.000816739 -0.000176257 0)
(0.00143583 -0.000134477 0)
(0.00194258 -8.8818e-05 0)
(0.00232951 -4.14108e-05 0)
(0.00259164 5.84322e-06 0)
(0.00272596 5.36739e-05 0)
(0.00274189 0.000103271 0)
(0.00263008 0.00014365 0)
(0.00238603 0.000179669 0)
(0.00202082 0.00021272 0)
(0.00154206 0.000240185 0)
(0.000960213 0.000263138 0)
(0.000288667 0.00027963 0)
(-0.00045434 0.000288067 0)
(-0.00124398 0.000287901 0)
(-0.00206529 0.000279998 0)
(-0.00289812 0.000264981 0)
(-0.0037246 0.000244074 0)
(-0.00452907 0.000218941 0)
(-0.00529872 0.000191416 0)
(-0.00602409 0.000163282 0)
(-0.00669918 0.000136103 0)
(-0.00732125 0.000111111 0)
(-0.00789041 8.91564e-05 0)
(-0.00840911 7.07118e-05 0)
(-0.00888141 5.59073e-05 0)
(-0.00931237 4.45934e-05 0)
(-0.00970744 3.64175e-05 0)
(-0.0100719 3.09024e-05 0)
(-0.0104107 2.75167e-05 0)
(-0.0107278 2.57332e-05 0)
(-0.0110267 2.50697e-05 0)
(-0.0113098 2.51202e-05 0)
(-0.0115792 2.55689e-05 0)
(-0.0118361 2.61918e-05 0)
(-0.0120816 2.68478e-05 0)
(-0.0123165 2.74608e-05 0)
(-0.0125413 2.80068e-05 0)
(-0.0127568 2.84964e-05 0)
(-0.0129635 2.89584e-05 0)
(-0.013162 2.94259e-05 0)
(-0.0133528 2.99187e-05 0)
(-0.0135362 3.04326e-05 0)
(-0.0137122 3.09289e-05 0)
(-0.0138803 3.1317e-05 0)
(-0.0140395 3.14368e-05 0)
(-0.0141879 3.10459e-05 0)
(-0.0143225 2.97892e-05 0)
(-0.0144397 2.70885e-05 0)
(-0.014535 2.20545e-05 0)
(-0.0146041 1.36986e-05 0)
(-0.0146433 1.66292e-06 0)
(-0.0146485 -1.09605e-05 0)
(-0.0146208 -1.66924e-05 0)
(-0.0145442 -2.19067e-05 0)
(-0.0144064 -2.94207e-05 0)
(-0.0141946 -4.05416e-05 0)
(-0.0138956 -5.60691e-05 0)
(-0.0134977 -7.65104e-05 0)
(-0.0129914 -0.000101965 0)
(-0.0123708 -0.000131947 0)
(-0.0116348 -0.000165241 0)
(-0.0107884 -0.000199803 0)
(-0.00984414 -0.00023276 0)
(-0.00882323 -0.000260426 0)
(-0.00775625 -0.000278211 0)
(-0.00668305 -0.000280925 0)
(-0.00565186 -0.000263454 0)
(-0.00471718 -0.000221417 0)
(-0.00393578 -0.000151983 0)
(-0.00336035 -5.47888e-05 0)
(-0.00302688 6.67966e-05 0)
(-0.00293048 0.000194024 0)
(-0.0031133 0.000270019 0)
(-0.00356231 0.000308274 0)
(-0.0042011 0.000314209 0)
(-0.00496109 0.000293153 0)
(-0.0057763 0.00025231 0)
(-0.00659827 0.000197863 0)
(-0.00740138 0.000137702 0)
(-0.00817679 8.11355e-05 0)
(-0.00892551 3.60314e-05 0)
(-0.0096521 6.91366e-06 0)
(-0.0103588 -5.76248e-06 0)
(-0.0110417 -5.21554e-06 0)
(-0.0116896 3.0465e-06 0)
(-0.0122861 1.3052e-05 0)
(-0.012813 1.99697e-05 0)
(-0.0132545 2.10429e-05 0)
(-0.0136006 1.57617e-05 0)
(-0.0138492 5.42215e-06 0)
(-0.014007 -7.61885e-06 0)
(-0.0140882 -2.06463e-05 0)
(-0.014112 -3.137e-05 0)
(-0.0141014 -4.04083e-05 0)
(-0.014079 -5.38775e-05 0)
(-0.0140577 -7.08698e-05 0)
(-0.0140635 -8.12461e-05 0)
(-0.0141358 -8.00923e-05 0)
(-0.014299 -6.93551e-05 0)
(-0.0145713 -5.06708e-05 0)
(-0.0149609 -2.5573e-05 0)
(-0.0154668 4.56294e-06 0)
(-0.0160793 3.83024e-05 0)
(-0.0167812 7.37533e-05 0)
(-0.0175491 0.000108458 0)
(-0.0183554 0.000139642 0)
(-0.0191701 0.000164587 0)
(-0.0199638 0.000181116 0)
(-0.0207097 0.000188089 0)
(-0.0213866 0.000185633 0)
(-0.0219794 0.000175026 0)
(-0.0224804 0.000158302 0)
(-0.0228882 0.00013777 0)
(-0.0232063 0.0001156 0)
(-0.0234422 9.35268e-05 0)
(-0.0236046 7.25584e-05 0)
(-0.0237023 5.35099e-05 0)
(-0.0237428 4.03671e-05 0)
(-0.0237347 3.97552e-05 0)
(-0.0236915 4.34893e-05 0)
(-0.0235986 3.85372e-05 0)
(-0.0234545 2.27899e-05 0)
(-0.0232581 -2.15613e-06 0)
(-0.0230102 -3.44518e-05 0)
(-0.0227152 -7.24192e-05 0)
(-0.0223811 -0.000114568 0)
(-0.022019 -0.000159805 0)
(-0.0216423 -0.000207532 0)
(-0.021265 -0.000257261 0)
(-0.0209007 -0.0003074 0)
(-0.0205699 -0.000348733 0)
(-0.0202953 -0.000356805 0)
(-0.0201031 -0.00031384 0)
(-0.020068 -0.000239575 0)
(-0.0202698 -0.000177472 0)
(-0.0206136 -0.000137543 0)
(-0.0211138 -0.000100936 0)
(-0.0217848 -5.71722e-05 0)
(-0.0226441 -1.86913e-06 0)
(-0.0237111 6.73142e-05 0)
(-0.0250059 0.000152163 0)
(-0.0265482 0.000254065 0)
(-0.0283565 0.000373842 0)
(-0.0304467 0.000511551 0)
(-0.0328309 0.000666327 0)
(-0.0355165 0.000836292 0)
(-0.0385049 0.00101854 0)
(-0.041791 0.00120925 0)
(-0.0453626 0.00140383 0)
(-0.0492006 0.0015973 0)
(-0.0532792 0.00178464 0)
(-0.057567 0.00196118 0)
(-0.0620275 0.00212301 0)
(-0.066621 0.0022672 0)
(-0.0713054 0.00239188 0)
(-0.0760378 0.00249622 0)
(-0.0807756 0.00258039 0)
(-0.085478 0.00264552 0)
(-0.0901071 0.00269347 0)
(-0.0946282 0.00272661 0)
(-0.0990107 0.00274711 0)
(-0.103226 0.00275599 0)
(-0.107246 0.00275178 0)
(-0.111035 0.00272907 0)
(-0.114546 0.0026766 0)
(-0.117708 0.00257495 0)
(-0.12041 0.0023944 0)
(-0.122488 0.0020949 0)
(-0.123724 0.00162245 0)
(-0.123839 0.000867317 0)
(-0.122404 -0.000237374 0)
(-0.118874 -0.00170109 0)
(-0.11267 -0.00355176 0)
(-0.10314 -0.00581082 0)
(-0.0896646 -0.00845142 0)
(-0.0719718 -0.0113155 0)
(-0.0507093 -0.0138768 0)
(-0.027765 -0.014614 0)
(-0.00470428 -0.00960247 0)
(0.00761709 0.00190796 0)
(-0.00923161 0.0200446 0)
(-0.014375 0.000355327 0)
(-0.0154355 -0.00442494 0)
(-0.0157443 -0.0032523 0)
(-0.0164272 -0.00143845 0)
(-0.0177866 -0.000131732 0)
(-0.0191212 0.000463611 0)
(-0.0202224 0.000555158 0)
(-0.0209715 0.000353293 0)
(-0.0212571 1.86471e-05 0)
(-0.0210831 -0.000351723 0)
(-0.0204987 -0.000721036 0)
(-0.01956 -0.00105335 0)
(-0.0183665 -0.00131587 0)
(-0.0170229 -0.00149001 0)
(-0.0156232 -0.00157327 0)
(-0.0142412 -0.00157483 0)
(-0.0129302 -0.00150961 0)
(-0.0117254 -0.00139366 0)
(-0.010652 -0.00124476 0)
(-0.00972451 -0.00106752 0)
(-0.00894917 -0.000873281 0)
(-0.00833091 -0.000669122 0)
(-0.00787313 -0.000460173 0)
(-0.00757868 -0.000248613 0)
(-0.00745046 -3.31033e-05 0)
(-0.0074993 0.000181727 0)
(-0.00774678 0.000396555 0)
(-0.00819335 0.000605164 0)
(-0.0088356 0.000801137 0)
(-0.00966264 0.000980634 0)
(-0.01066 0.00113737 0)
(-0.011809 0.00126614 0)
(-0.0130873 0.00136352 0)
(-0.0144682 0.00142837 0)
(-0.015923 0.00146041 0)
(-0.0174227 0.00146135 0)
(-0.0189395 0.00143458 0)
(-0.0204482 0.00138481 0)
(-0.0219273 0.00131753 0)
(-0.0233597 0.00123846 0)
(-0.024733 0.00115311 0)
(-0.0260389 0.00106635 0)
(-0.0272734 0.000982144 0)
(-0.0284352 0.000903376 0)
(-0.0295257 0.000831848 0)
(-0.0305477 0.000768363 0)
(-0.0315047 0.000712895 0)
(-0.0324007 0.000664818 0)
(-0.0332395 0.000623141 0)
(-0.0340246 0.000586723 0)
(-0.0347592 0.000554461 0)
(-0.0354463 0.00052541 0)
(-0.0360885 0.000498839 0)
(-0.0366883 0.000474246 0)
(-0.0372479 0.000451327 0)
(-0.0377697 0.000429925 0)
(-0.0382558 0.000409962 0)
(-0.0387082 0.00039136 0)
(-0.0391287 0.000373973 0)
(-0.0395186 0.000357518 0)
(-0.0398788 0.000341525 0)
(-0.0402095 0.000325296 0)
(-0.0405101 0.000307848 0)
(-0.040779 0.00028789 0)
(-0.0410135 0.000263846 0)
(-0.0412101 0.000234037 0)
(-0.0413641 0.000197232 0)
(-0.0414701 0.000153638 0)
(-0.0415221 0.00010563 0)
(-0.0415136 5.58414e-05 0)
(-0.0414417 1.23547e-06 0)
(-0.0412746 -7.02118e-05 0)
(-0.0409982 -0.000166593 0)
(-0.0405957 -0.000288948 0)
(-0.040053 -0.000436009 0)
(-0.0393592 -0.000605147 0)
(-0.038508 -0.000792271 0)
(-0.0374978 -0.000991636 0)
(-0.0363328 -0.00119573 0)
(-0.0350236 -0.00139526 0)
(-0.0335877 -0.00157924 0)
(-0.0320499 -0.00173513 0)
(-0.0304427 -0.00184916 0)
(-0.0288059 -0.00190682 0)
(-0.0271868 -0.00189389 0)
(-0.0256391 -0.00179805 0)
(-0.0242206 -0.00161124 0)
(-0.0229902 -0.00133346 0)
(-0.0220051 -0.000978068 0)
(-0.0213196 -0.000571535 0)
(-0.020981 -0.000136901 0)
(-0.0210633 0.000302035 0)
(-0.0216396 0.000714948 0)
(-0.0226369 0.00104723 0)
(-0.0239843 0.00128196 0)
(-0.0256119 0.00142821 0)
(-0.0274533 0.00150741 0)
(-0.0294439 0.00154459 0)
(-0.0315233 0.00155973 0)
(-0.0336319 0.00156206 0)
(-0.0357099 0.00155018 0)
(-0.0376995 0.00151605 0)
(-0.0395495 0.00145038 0)
(-0.0412189 0.00134719 0)
(-0.042679 0.00120631 0)
(-0.0439144 0.00103374 0)
(-0.0449227 0.000840508 0)
(-0.0457141 0.000640754 0)
(-0.0463099 0.000449636 0)
(-0.0467415 0.000281404 0)
(-0.0470482 0.000147923 0)
(-0.0472752 5.72678e-05 0)
(-0.047472 1.24009e-05 0)
(-0.0476966 1.31939e-05 0)
(-0.0480035 6.30921e-05 0)
(-0.0484244 0.000165753 0)
(-0.0489766 0.000315891 0)
(-0.0496794 0.000501446 0)
(-0.0505416 0.000707886 0)
(-0.0515597 0.000918904 0)
(-0.0527177 0.00111793 0)
(-0.0539877 0.00128955 0)
(-0.0553328 0.00142074 0)
(-0.0567104 0.0015021 0)
(-0.0580762 0.00152875 0)
(-0.0593883 0.00150073 0)
(-0.06061 0.00142276 0)
(-0.0617122 0.00130351 0)
(-0.0626747 0.00115429 0)
(-0.0634864 0.000987464 0)
(-0.0641449 0.000814824 0)
(-0.0646551 0.000646301 0)
(-0.0650272 0.000489136 0)
(-0.0652749 0.000347568 0)
(-0.0654132 0.000222962 0)
(-0.0654556 0.000114186 0)
(-0.0654164 1.75583e-05 0)
(-0.0653059 -7.61047e-05 0)
(-0.0651131 -0.000173766 0)
(-0.0648577 -0.000273944 0)
(-0.0645543 -0.000370759 0)
(-0.0642211 -0.000458839 0)
(-0.0638776 -0.00053316 0)
(-0.0635447 -0.000588421 0)
(-0.0632454 -0.000619195 0)
(-0.0630045 -0.000620446 0)
(-0.0628491 -0.000587676 0)
(-0.0628076 -0.000516362 0)
(-0.0629096 -0.000403868 0)
(-0.0631956 -0.000252594 0)
(-0.0636968 -7.0029e-05 0)
(-0.06435 0.000150325 0)
(-0.0651215 0.000402537 0)
(-0.0660281 0.000666752 0)
(-0.0671407 0.000940009 0)
(-0.0684659 0.00123103 0)
(-0.0700125 0.00154483 0)
(-0.0717862 0.00188351 0)
(-0.0737906 0.00224734 0)
(-0.0760276 0.00263519 0)
(-0.078497 0.00304445 0)
(-0.081196 0.00347102 0)
(-0.0841185 0.00390919 0)
(-0.087255 0.00435182 0)
(-0.0905919 0.00479051 0)
(-0.0941112 0.00521594 0)
(-0.0977904 0.00561839 0)
(-0.101603 0.00598809 0)
(-0.105517 0.00631584 0)
(-0.109497 0.00659337 0)
(-0.113506 0.00681381 0)
(-0.117502 0.00697192 0)
(-0.121442 0.00706429 0)
(-0.125283 0.00708929 0)
(-0.128982 0.00704711 0)
(-0.132495 0.0069396 0)
(-0.135781 0.00677018 0)
(-0.138804 0.00654339 0)
(-0.141528 0.00626424 0)
(-0.143924 0.00593684 0)
(-0.145963 0.00556226 0)
(-0.147619 0.00513556 0)
(-0.148862 0.00464224 0)
(-0.149651 0.00405424 0)
(-0.149923 0.00332656 0)
(-0.149579 0.0023959 0)
(-0.148467 0.0011794 0)
(-0.146408 -0.000436182 0)
(-0.143265 -0.00251133 0)
(-0.138777 -0.00518036 0)
(-0.132658 -0.0085647 0)
(-0.124447 -0.0127595 0)
(-0.1136 -0.0178042 0)
(-0.099578 -0.0235985 0)
(-0.0820905 -0.0297191 0)
(-0.061495 -0.0349799 0)
(-0.0392036 -0.0364728 0)
(-0.0176832 -0.028018 0)
(0.00306376 0.00257569 0)
(-0.00736497 0.0311593 0)
(-0.0130165 0.00580255 0)
(-0.0175089 -0.00187458 0)
(-0.0211198 -0.000872836 0)
(-0.0241946 0.00100313 0)
(-0.0266028 0.00197248 0)
(-0.0284867 0.00209524 0)
(-0.0297669 0.00164113 0)
(-0.0304037 0.000859038 0)
(-0.0304075 -5.65347e-05 0)
(-0.0298485 -0.000972619 0)
(-0.0288448 -0.0017807 0)
(-0.0275751 -0.00240513 0)
(-0.0261979 -0.00281379 0)
(-0.0248305 -0.00301559 0)
(-0.0235475 -0.00304329 0)
(-0.0223909 -0.00293685 0)
(-0.0213815 -0.00273362 0)
(-0.0205278 -0.00246448 0)
(-0.0198326 -0.00215271 0)
(-0.0192956 -0.00181283 0)
(-0.0189155 -0.00145781 0)
(-0.0186925 -0.00109656 0)
(-0.01863 -0.000733955 0)
(-0.0187356 -0.000364837 0)
(-0.0190493 2.84888e-05 0)
(-0.019592 0.00044706 0)
(-0.0203285 0.000872555 0)
(-0.0212569 0.00129152 0)
(-0.0223682 0.00169232 0)
(-0.0236497 0.00206373 0)
(-0.0250852 0.00239452 0)
(-0.0266549 0.00267489 0)
(-0.0283358 0.00289763 0)
(-0.0301028 0.00305867 0)
(-0.0319298 0.00315706 0)
(-0.0337909 0.00319523 0)
(-0.0356622 0.00317872 0)
(-0.0375221 0.00311548 0)
(-0.0393525 0.00301497 0)
(-0.0411383 0.00288724 0)
(-0.0428677 0.00274196 0)
(-0.0445319 0.00258777 0)
(-0.0461241 0.00243168 0)
(-0.0476398 0.00227892 0)
(-0.0490759 0.00213295 0)
(-0.0504304 0.0019956 0)
(-0.0517024 0.00186749 0)
(-0.0528918 0.00174836 0)
(-0.0539993 0.00163748 0)
(-0.0550263 0.00153389 0)
(-0.0559748 0.00143667 0)
(-0.0568473 0.00134509 0)
(-0.0576467 0.00125859 0)
(-0.0583761 0.00117683 0)
(-0.0590391 0.00109959 0)
(-0.0596389 0.0010267 0)
(-0.060179 0.000957944 0)
(-0.0606624 0.000892985 0)
(-0.0610919 0.000831264 0)
(-0.0614697 0.000771936 0)
(-0.0617973 0.000713827 0)
(-0.0620756 0.000655424 0)
(-0.0623045 0.000594839 0)
(-0.062483 0.000529824 0)
(-0.0626088 0.000457932 0)
(-0.0626785 0.000377069 0)
(-0.0626868 0.000286139 0)
(-0.062628 0.000183834 0)
(-0.062498 6.4923e-05 0)
(-0.062282 -7.91037e-05 0)
(-0.0619438 -0.000254921 0)
(-0.0614863 -0.00046757 0)
(-0.0609063 -0.00071408 0)
(-0.0602025 -0.00099163 0)
(-0.0593753 -0.00129602 0)
(-0.0584271 -0.00162116 0)
(-0.057363 -0.00195894 0)
(-0.0561912 -0.00229916 0)
(-0.0549238 -0.00262946 0)
(-0.0535775 -0.00293537 0)
(-0.0521734 -0.00320039 0)
(-0.0507381 -0.00340626 0)
(-0.0493036 -0.00353357 0)
(-0.0479073 -0.00356265 0)
(-0.0465926 -0.00347489 0)
(-0.045408 -0.00325451 0)
(-0.0444075 -0.0028911 0)
(-0.0436499 -0.00238184 0)
(-0.0431954 -0.00172929 0)
(-0.043102 -0.000932757 0)
(-0.0434785 -3.71504e-08 0)
(-0.044362 0.000987233 0)
(-0.0455527 0.00187763 0)
(-0.0470746 0.00260916 0)
(-0.0489066 0.0031764 0)
(-0.0510118 0.00359431 0)
(-0.0533329 0.00388271 0)
(-0.0557975 0.00405737 0)
(-0.0583256 0.00412809 0)
(-0.0608374 0.00410022 0)
(-0.0632602 0.00397763 0)
(-0.0655315 0.00376575 0)
(-0.0676024 0.0034736 0)
(-0.0694384 0.00311462 0)
(-0.0710194 0.00270664 0)
(-0.0723394 0.00227115 0)
(-0.073405 0.00183206 0)
(-0.0742342 0.00141428 0)
(-0.0748547 0.00104208 0)
(-0.0753021 0.00073698 0)
(-0.0756186 0.000516255 0)
(-0.0758504 0.000391453 0)
(-0.0760461 0.00036671 0)
(-0.0762545 0.000439146 0)
(-0.0765206 0.000597756 0)
(-0.0768806 0.000828951 0)
(-0.0773585 0.00111825 0)
(-0.0779665 0.00144611 0)
(-0.0787067 0.00178744 0)
(-0.0795714 0.00211509 0)
(-0.0805427 0.00240283 0)
(-0.081594 0.00262803 0)
(-0.0826919 0.00277365 0)
(-0.083799 0.0028297 0)
(-0.0848778 0.00279383 0)
(-0.085894 0.00267111 0)
(-0.0868191 0.00247293 0)
(-0.0876324 0.00221565 0)
(-0.0883216 0.00191867 0)
(-0.0888827 0.00160197 0)
(-0.089319 0.00128384 0)
(-0.0896387 0.000979084 0)
(-0.0898535 0.000697998 0)
(-0.0899765 0.000446291 0)
(-0.0900208 0.000225584 0)
(-0.0899988 3.33147e-05 0)
(-0.0899238 -0.000137544 0)
(-0.0898045 -0.000291061 0)
(-0.0896702 -0.000424473 0)
(-0.0895362 -0.000534215 0)
(-0.0894161 -0.00061844 0)
(-0.0893228 -0.000674077 0)
(-0.0892688 -0.000696725 0)
(-0.0892667 -0.000681354 0)
(-0.0893291 -0.000623113 0)
(-0.0894678 -0.000518261 0)
(-0.0896934 -0.000364911 0)
(-0.0900159 -0.000162651 0)
(-0.0904455 8.59902e-05 0)
(-0.090962 0.000371005 0)
(-0.0915606 0.000686545 0)
(-0.092292 0.00103817 0)
(-0.0931653 0.00143116 0)
(-0.0941892 0.00186158 0)
(-0.0953715 0.00232015 0)
(-0.0967172 0.0028017 0)
(-0.0982286 0.00330581 0)
(-0.0999041 0.00383222 0)
(-0.101739 0.00437946 0)
(-0.103726 0.00494462 0)
(-0.105856 0.00552318 0)
(-0.108117 0.00610887 0)
(-0.110493 0.00669358 0)
(-0.112967 0.00726748 0)
(-0.115519 0.00781922 0)
(-0.118125 0.00833637 0)
(-0.12076 0.00880596 0)
(-0.123395 0.00921509 0)
(-0.126002 0.00955158 0)
(-0.128548 0.00980466 0)
(-0.131003 0.00996541 0)
(-0.133334 0.0100272 0)
(-0.135509 0.00998583 0)
(-0.1375 0.00983972 0)
(-0.139276 0.00958977 0)
(-0.140811 0.00923936 0)
(-0.142082 0.00879412 0)
(-0.143068 0.00826164 0)
(-0.143753 0.00765058 0)
(-0.144127 0.00696921 0)
(-0.144186 0.00622193 0)
(-0.143931 0.00540321 0)
(-0.143363 0.00449108 0)
(-0.142483 0.00344177 0)
(-0.141272 0.00219037 0)
(-0.139683 0.000655358 0)
(-0.137655 -0.00125951 0)
(-0.135283 -0.00365384 0)
(-0.132287 -0.00669395 0)
(-0.128458 -0.0105907 0)
(-0.123451 -0.0155705 0)
(-0.116831 -0.0218189 0)
(-0.108082 -0.0294147 0)
(-0.0966674 -0.0381992 0)
(-0.0821861 -0.0475003 0)
(-0.0646319 -0.0555605 0)
(-0.044723 -0.0584193 0)
(-0.0241837 -0.0479188 0)
(-0.00511256 -0.00949861 0)
(-0.00621008 0.0407295 0)
(-0.0127353 0.0124096 0)
(-0.0190783 0.00354188 0)
(-0.0241672 0.00339055 0)
(-0.0281066 0.00421237 0)
(-0.0310494 0.00432209 0)
(-0.0330552 0.00365471 0)
(-0.0341663 0.00243728 0)
(-0.0344766 0.000942412 0)
(-0.0341399 -0.000586822 0)
(-0.0333421 -0.00195753 0)
(-0.0323154 -0.00301804 0)
(-0.0312556 -0.00371296 0)
(-0.030283 -0.00406606 0)
(-0.0294595 -0.00414055 0)
(-0.0288078 -0.00400799 0)
(-0.0283293 -0.00373089 0)
(-0.0280177 -0.00335767 0)
(-0.0278645 -0.0029248 0)
(-0.0278634 -0.00245728 0)
(-0.0280133 -0.00197019 0)
(-0.0283182 -0.00147362 0)
(-0.02879 -0.000959683 0)
(-0.0294573 -0.000403421 0)
(-0.0303985 0.000203833 0)
(-0.031548 0.000834962 0)
(-0.0328333 0.00146392 0)
(-0.0342446 0.00207598 0)
(-0.0357657 0.0026614 0)
(-0.0373837 0.00320912 0)
(-0.0390865 0.00370745 0)
(-0.040862 0.00414472 0)
(-0.0426973 0.00451062 0)
(-0.0445788 0.0047975 0)
(-0.0464922 0.00500133 0)
(-0.0484231 0.00512208 0)
(-0.0503574 0.00516376 0)
(-0.0522813 0.00513391 0)
(-0.0541824 0.00504266 0)
(-0.0560488 0.00490164 0)
(-0.0578699 0.00472281 0)
(-0.0596359 0.00451747 0)
(-0.0613378 0.00429557 0)
(-0.0629675 0.00406523 0)
(-0.0645182 0.00383268 0)
(-0.0659838 0.00360235 0)
(-0.0673596 0.00337717 0)
(-0.0686425 0.00315889 0)
(-0.0698304 0.00294845 0)
(-0.0709229 0.00274626 0)
(-0.0719206 0.00255245 0)
(-0.0728254 0.00236705 0)
(-0.07364 0.00219005 0)
(-0.0743678 0.00202146 0)
(-0.0750126 0.0018613 0)
(-0.0755786 0.00170951 0)
(-0.07607 0.00156591 0)
(-0.076491 0.00143009 0)
(-0.0768455 0.00130136 0)
(-0.0771368 0.00117868 0)
(-0.077368 0.00106059 0)
(-0.0775414 0.000945169 0)
(-0.0776586 0.000830047 0)
(-0.0777203 0.000712364 0)
(-0.0777266 0.000588729 0)
(-0.077676 0.00045546 0)
(-0.0775654 0.000309122 0)
(-0.0773917 0.000145968 0)
(-0.0771545 -4.19855e-05 0)
(-0.0768337 -0.000260891 0)
(-0.0764199 -0.00051391 0)
(-0.0759267 -0.000800721 0)
(-0.0753568 -0.00111783 0)
(-0.0747123 -0.00146444 0)
(-0.0739967 -0.00183812 0)
(-0.0732147 -0.00223382 0)
(-0.0723728 -0.00264374 0)
(-0.0714797 -0.0030574 0)
(-0.0705467 -0.00346154 0)
(-0.0695878 -0.00384017 0)
(-0.0686208 -0.00417456 0)
(-0.0676668 -0.00444337 0)
(-0.0667514 -0.00462296 0)
(-0.0659039 -0.00468793 0)
(-0.0651581 -0.00461211 0)
(-0.0645512 -0.00436998 0)
(-0.0641237 -0.00393899 0)
(-0.0639172 -0.00330274 0)
(-0.0639696 -0.00245465 0)
(-0.0643074 -0.00140253 0)
(-0.0649562 -0.000182691 0)
(-0.0659373 0.00111055 0)
(-0.0670134 0.00234553 0)
(-0.0683038 0.00346786 0)
(-0.0698324 0.00444794 0)
(-0.0715923 0.00525574 0)
(-0.0735537 0.00587491 0)
(-0.0756656 0.00630193 0)
(-0.0778632 0.00654102 0)
(-0.0800748 0.00660035 0)
(-0.0822293 0.00649053 0)
(-0.0842618 0.00622497 0)
(-0.0861178 0.00582091 0)
(-0.0877564 0.00530018 0)
(-0.0891508 0.00468936 0)
(-0.0902892 0.00401933 0)
(-0.0911732 0.00332425 0)
(-0.0918167 0.00263993 0)
(-0.0922434 0.0020017 0)
(-0.0924846 0.00144239 0)
(-0.0925774 0.000989305 0)
(-0.092562 0.000662887 0)
(-0.0924803 0.000477104 0)
(-0.0923738 0.000436038 0)
(-0.0922821 0.000535955 0)
(-0.0922399 0.000761786 0)
(-0.0922738 0.001092 0)
(-0.0924 0.00149821 0)
(-0.0926232 0.00194769 0)
(-0.0929393 0.0024051 0)
(-0.0933365 0.00283424 0)
(-0.0937968 0.00320079 0)
(-0.0942965 0.00347557 0)
(-0.094809 0.00363735 0)
(-0.0953068 0.00367513 0)
(-0.0957652 0.00358918 0)
(-0.096165 0.00339025 0)
(-0.0964948 0.00309736 0)
(-0.0967507 0.00273519 0)
(-0.0969369 0.00233148 0)
(-0.0970639 0.0019133 0)
(-0.0971464 0.00150402 0)
(-0.0971997 0.00112125 0)
(-0.097238 0.000776045 0)
(-0.0972716 0.00047361 0)
(-0.097308 0.000214719 0)
(-0.0973523 -2.79572e-06 0)
(-0.097404 -0.000182415 0)
(-0.0974749 -0.000325564 0)
(-0.0975777 -0.000436216 0)
(-0.0977151 -0.000517159 0)
(-0.0978905 -0.000567853 0)
(-0.0981073 -0.000585415 0)
(-0.0983687 -0.000565531 0)
(-0.0986776 -0.000503264 0)
(-0.0990359 -0.000393679 0)
(-0.0994446 -0.00023223 0)
(-0.0999033 -1.5633e-05 0)
(-0.100415 0.000255061 0)
(-0.100983 0.000577877 0)
(-0.101631 0.000952962 0)
(-0.102366 0.00138417 0)
(-0.10319 0.00186564 0)
(-0.104104 0.00238969 0)
(-0.105109 0.00295014 0)
(-0.106206 0.00354033 0)
(-0.107393 0.00415439 0)
(-0.108668 0.00478818 0)
(-0.110025 0.00543796 0)
(-0.111454 0.00609942 0)
(-0.112944 0.00676701 0)
(-0.114483 0.00743372 0)
(-0.116054 0.00809083 0)
(-0.117641 0.00872795 0)
(-0.119224 0.0093331 0)
(-0.120783 0.00989306 0)
(-0.122296 0.0103938 0)
(-0.123742 0.0108212 0)
(-0.1251 0.0111616 0)
(-0.126345 0.0114025 0)
(-0.127459 0.0115335 0)
(-0.128421 0.0115464 0)
(-0.129213 0.0114359 0)
(-0.12982 0.0111996 0)
(-0.130228 0.010838 0)
(-0.130426 0.0103546 0)
(-0.130405 0.00975568 0)
(-0.130158 0.00905018 0)
(-0.129683 0.00825029 0)
(-0.12898 0.00737108 0)
(-0.128056 0.00642871 0)
(-0.126929 0.00543537 0)
(-0.125629 0.00438779 0)
(-0.124193 0.00326113 0)
(-0.122656 0.00200878 0)
(-0.121027 0.000569527 0)
(-0.119316 -0.00113285 0)
(-0.117731 -0.00321992 0)
(-0.115977 -0.00590609 0)
(-0.113941 -0.0094692 0)
(-0.111429 -0.0141708 0)
(-0.108157 -0.0203061 0)
(-0.103735 -0.0281524 0)
(-0.0976647 -0.0378729 0)
(-0.0893696 -0.0493348 0)
(-0.078287 -0.0617587 0)
(-0.0640129 -0.0730521 0)
(-0.0465388 -0.0785679 0)
(-0.0268018 -0.0687984 0)
(-0.00801958 -0.0255109 0)
(-0.00543181 0.049531 0)
(-0.0124824 0.0196693 0)
(-0.0194474 0.00957752 0)
(-0.025111 0.0082171 0)
(-0.0294846 0.0078453 0)
(-0.0326168 0.00682983 0)
(-0.0345961 0.0051286 0)
(-0.0355746 0.00301393 0)
(-0.0357745 0.000808727 0)
(-0.035473 -0.00119672 0)
(-0.0349582 -0.00277992 0)
(-0.0344601 -0.00384382 0)
(-0.0341072 -0.00441449 0)
(-0.0339504 -0.0045854 0)
(-0.0339951 -0.00446439 0)
(-0.0342261 -0.00414594 0)
(-0.0346243 -0.00370038 0)
(-0.0351762 -0.00317559 0)
(-0.035876 -0.00260455 0)
(-0.0367255 -0.00200055 0)
(-0.0377386 -0.00135027 0)
(-0.0389457 -0.00063651 0)
(-0.0404123 0.000138689 0)
(-0.0420431 0.000934901 0)
(-0.043706 0.00171113 0)
(-0.0453968 0.00244685 0)
(-0.0471189 0.0031467 0)
(-0.0488713 0.00381513 0)
(-0.0506504 0.00444797 0)
(-0.0524507 0.00503606 0)
(-0.054266 0.00556772 0)
(-0.0560894 0.00603079 0)
(-0.0579142 0.00641439 0)
(-0.0597336 0.00671049 0)
(-0.0615415 0.00691484 0)
(-0.0633317 0.00702738 0)
(-0.0650983 0.0070522 0)
(-0.0668349 0.00699686 0)
(-0.0685351 0.00687145 0)
(-0.0701918 0.00668751 0)
(-0.0717976 0.00645692 0)
(-0.0733449 0.00619107 0)
(-0.074826 0.00590015 0)
(-0.0762335 0.0055929 0)
(-0.077561 0.00527645 0)
(-0.0788027 0.00495645 0)
(-0.0799547 0.00463725 0)
(-0.0810139 0.00432213 0)
(-0.0819793 0.00401356 0)
(-0.0828508 0.0037134 0)
(-0.08363 0.00342305 0)
(-0.0843192 0.0031436 0)
(-0.0849219 0.00287589 0)
(-0.085442 0.00262053 0)
(-0.0858839 0.00237791 0)
(-0.0862522 0.00214816 0)
(-0.0865516 0.00193106 0)
(-0.0867866 0.00172603 0)
(-0.0869613 0.00153206 0)
(-0.0870798 0.00134764 0)
(-0.0871452 0.00117077 0)
(-0.0871606 0.000998912 0)
(-0.0871282 0.00082901 0)
(-0.0870499 0.000657436 0)
(-0.0869267 0.000479906 0)
(-0.0867584 0.000291606 0)
(-0.0865443 8.74874e-05 0)
(-0.0862861 -0.000140407 0)
(-0.0859741 -0.000395242 0)
(-0.0856169 -0.000678408 0)
(-0.0852224 -0.000989131 0)
(-0.0847941 -0.00132765 0)
(-0.0843347 -0.00169383 0)
(-0.0838476 -0.00208594 0)
(-0.0833377 -0.00249995 0)
(-0.0828112 -0.00292902 0)
(-0.082276 -0.00336342 0)
(-0.0817419 -0.00379036 0)
(-0.0812204 -0.004194 0)
(-0.0807255 -0.0045554 0)
(-0.0802732 -0.00485269 0)
(-0.0798817 -0.00506126 0)
(-0.0795708 -0.00515436 0)
(-0.0793616 -0.00510402 0)
(-0.079275 -0.00488259 0)
(-0.0793305 -0.00446508 0)
(-0.079544 -0.00383244 0)
(-0.0799243 -0.00297579 0)
(-0.0804694 -0.00190192 0)
(-0.0811678 -0.000642668 0)
(-0.0820113 0.00073471 0)
(-0.0828817 0.00214133 0)
(-0.0838567 0.00352168 0)
(-0.0849682 0.00482888 0)
(-0.0862136 0.00599662 0)
(-0.0875824 0.00697137 0)
(-0.0890492 0.00771867 0)
(-0.0905741 0.00822074 0)
(-0.0921058 0.00847287 0)
(-0.0935878 0.00848055 0)
(-0.0949636 0.0082577 0)
(-0.0961826 0.00782589 0)
(-0.0972043 0.00721398 0)
(-0.0980016 0.00645763 0)
(-0.098562 0.00559832 0)
(-0.0988876 0.00468182 0)
(-0.0989939 0.00375599 0)
(-0.0989072 0.0028671 0)
(-0.0986619 0.00205561 0)
(-0.0982971 0.00135688 0)
(-0.0978532 0.000799737 0)
(-0.0973667 0.0004043 0)
(-0.0968694 0.000187338 0)
(-0.0963946 0.000153159 0)
(-0.095963 0.000289693 0)
(-0.0955775 0.00057658 0)
(-0.0952467 0.000982459 0)
(-0.094978 0.00146719 0)
(-0.0947665 0.00198917 0)
(-0.0945999 0.0025075 0)
(-0.0944621 0.00298134 0)
(-0.094334 0.00337258 0)
(-0.0941954 0.00365 0)
(-0.0940262 0.00379258 0)
(-0.0938096 0.00379243 0)
(-0.0935351 0.00365629 0)
(-0.0932023 0.00340369 0)
(-0.0928218 0.00306227 0)
(-0.0924135 0.00266306 0)
(-0.0920052 0.00223921 0)
(-0.0916295 0.0018207 0)
(-0.0913184 0.00143034 0)
(-0.0910987 0.00108226 0)
(-0.0909879 0.000782176 0)
(-0.0909923 0.0005291 0)
(-0.091109 0.000318326 0)
(-0.0913281 0.000144943 0)
(-0.0916361 6.73161e-06 0)
(-0.0920142 -9.90022e-05 0)
(-0.0924447 -0.000174597 0)
(-0.0929199 -0.000220369 0)
(-0.093436 -0.000233645 0)
(-0.0939916 -0.000210229 0)
(-0.0945868 -0.000145557 0)
(-0.0952224 -3.53527e-05 0)
(-0.0958992 0.000124122 0)
(-0.0966181 0.00033607 0)
(-0.0973797 0.000602996 0)
(-0.0981795 0.00092636 0)
(-0.0990169 0.0013055 0)
(-0.099891 0.00174068 0)
(-0.100799 0.00222955 0)
(-0.101738 0.00276745 0)
(-0.102703 0.00334755 0)
(-0.103693 0.00396229 0)
(-0.104701 0.00460403 0)
(-0.105724 0.0052657 0)
(-0.106756 0.00594096 0)
(-0.107788 0.00662362 0)
(-0.10881 0.00730708 0)
(-0.109809 0.0079838 0)
(-0.110773 0.00864497 0)
(-0.111687 0.0092804 0)
(-0.112534 0.00987846 0)
(-0.113298 0.0104263 0)
(-0.113962 0.0109102 0)
(-0.114511 0.0113161 0)
(-0.114928 0.0116302 0)
(-0.115201 0.0118399 0)
(-0.115315 0.011934 0)
(-0.115261 0.011904 0)
(-0.11503 0.0117439 0)
(-0.114619 0.0114508 0)
(-0.114024 0.0110248 0)
(-0.113246 0.0104689 0)
(-0.112287 0.00978851 0)
(-0.111151 0.00899171 0)
(-0.109841 0.00809005 0)
(-0.108362 0.00710005 0)
(-0.10672 0.006043 0)
(-0.104932 0.00494003 0)
(-0.103036 0.00381105 0)
(-0.101093 0.00266201 0)
(-0.0991722 0.00148676 0)
(-0.0973242 0.000273481 0)
(-0.0957101 -0.00103729 0)
(-0.0945061 -0.00258994 0)
(-0.093428 -0.0046178 0)
(-0.0924462 -0.00737258 0)
(-0.0914839 -0.01113 0)
(-0.0904085 -0.0162264 0)
(-0.0889991 -0.0230526 0)
(-0.0869112 -0.0320063 0)
(-0.0836546 -0.0433829 0)
(-0.0785978 -0.0571575 0)
(-0.0710042 -0.0725772 0)
(-0.0601071 -0.0874086 0)
(-0.0453042 -0.0965362 0)
(-0.0268913 -0.0891976 0)
(-0.00874764 -0.0425641 0)
(-0.00486238 0.0579064 0)
(-0.012154 0.0272588 0)
(-0.0192556 0.0159915 0)
(-0.0250594 0.0133519 0)
(-0.0295508 0.011661 0)
(-0.0327386 0.0093936 0)
(-0.0347521 0.00659604 0)
(-0.035831 0.00362395 0)
(-0.0362951 0.000861716 0)
(-0.0364878 -0.00138213 0)
(-0.0366988 -0.00294276 0)
(-0.0370819 -0.00383938 0)
(-0.0376909 -0.00419075 0)
(-0.0385232 -0.00414452 0)
(-0.0395537 -0.00383205 0)
(-0.0407546 -0.00335209 0)
(-0.042106 -0.00276419 0)
(-0.0436026 -0.00209056 0)
(-0.0452495 -0.00133688 0)
(-0.0470755 -0.000511195 0)
(-0.0490672 0.000359269 0)
(-0.051095 0.00122963 0)
(-0.0530382 0.00205903 0)
(-0.0549241 0.00283471 0)
(-0.0567791 0.00357164 0)
(-0.0586162 0.00428577 0)
(-0.0604374 0.00497812 0)
(-0.0622396 0.00564285 0)
(-0.0640169 0.00627001 0)
(-0.065763 0.00684763 0)
(-0.0674722 0.0073632 0)
(-0.0691401 0.00780488 0)
(-0.0707632 0.00816265 0)
(-0.0723395 0.00842932 0)
(-0.0738676 0.00860119 0)
(-0.0753468 0.00867841 0)
(-0.0767762 0.00866476 0)
(-0.0781543 0.0085672 0)
(-0.0794791 0.00839501 0)
(-0.0807476 0.00815886 0)
(-0.081956 0.00786998 0)
(-0.0831 0.00753937 0)
(-0.0841752 0.00717729 0)
(-0.0851776 0.00679295 0)
(-0.0861035 0.00639433 0)
(-0.0869505 0.00598827 0)
(-0.087717 0.00558043 0)
(-0.0884028 0.00517552 0)
(-0.0890088 0.0047774 0)
(-0.0895372 0.00438919 0)
(-0.0899908 0.00401336 0)
(-0.0903734 0.00365184 0)
(-0.0906891 0.00330612 0)
(-0.0909424 0.00297722 0)
(-0.0911381 0.00266576 0)
(-0.0912808 0.0023719 0)
(-0.0913749 0.00209531 0)
(-0.0914247 0.00183517 0)
(-0.0914339 0.00159014 0)
(-0.0914062 0.00135832 0)
(-0.0913445 0.00113726 0)
(-0.0912514 0.000923953 0)
(-0.0911294 0.000714859 0)
(-0.0909805 0.000505931 0)
(-0.0908067 0.000292489 0)
(-0.0906089 6.89338e-05 0)
(-0.0903898 -0.000171036 0)
(-0.0901512 -0.000430479 0)
(-0.089901 -0.000710328 0)
(-0.0896442 -0.00101225 0)
(-0.0893835 -0.00133821 0)
(-0.0891212 -0.00168912 0)
(-0.0888602 -0.00206424 0)
(-0.0886045 -0.00246069 0)
(-0.088359 -0.00287309 0)
(-0.0881299 -0.00329318 0)
(-0.0879246 -0.00370968 0)
(-0.0877518 -0.00410823 0)
(-0.0876212 -0.00447138 0)
(-0.0875435 -0.00477878 0)
(-0.08753 -0.00500746 0)
(-0.0875919 -0.00513229 0)
(-0.0877396 -0.00512693 0)
(-0.0879816 -0.00496505 0)
(-0.0883232 -0.00462229 0)
(-0.0887649 -0.00407883 0)
(-0.089301 -0.00332258 0)
(-0.0899184 -0.00235337 0)
(-0.0905976 -0.00118883 0)
(-0.0913173 0.000130525 0)
(-0.0920348 0.00154698 0)
(-0.0927478 0.00300523 0)
(-0.0935041 0.0044631 0)
(-0.0942939 0.00584927 0)
(-0.095108 0.00708823 0)
(-0.0959325 0.00811672 0)
(-0.0967452 0.00888871 0)
(-0.097515 0.00937595 0)
(-0.0982034 0.00956681 0)
(-0.0987685 0.00946469 0)
(-0.0991696 0.00908657 0)
(-0.0993722 0.00846192 0)
(-0.0993524 0.00763154 0)
(-0.0991004 0.00664598 0)
(-0.0986217 0.00556271 0)
(-0.0979376 0.00444125 0)
(-0.0970839 0.00333814 0)
(-0.0961091 0.002304 0)
(-0.0950652 0.00138025 0)
(-0.0940005 0.000609473 0)
(-0.0929541 3.12941e-05 0)
(-0.0920135 -0.000330434 0)
(-0.0912046 -0.000485494 0)