/*--------------------------------*- C++ -*----------------------------------*\
  =========                 |
  \\      /  F ield         | OpenFOAM: The Open Source CFD Toolbox
   \\    /   O peration     | Website:  https://openfoam.org
    \\  /    A nd           | Version:  11
     \\/     M anipulation  |
\*---------------------------------------------------------------------------*/
FoamFile
{
    format      ascii;
    class       volVectorField;
    location    "3";
    object      U;
}
// * * * * * * * * * * * * * * * * * * * * * * * * * * * * * * * * * * * * * //

dimensions      [0 1 -1 0 0 0 0];

internalField   nonuniform List<vector> 
40000
(
(-0.0122019 0.00854598 0)
(-0.0173729 -0.000132143 0)
(-0.015054 -0.00194778 0)
(-0.0114516 -0.00185303 0)
(-0.00821613 -0.00137268 0)
(-0.00573961 -0.000953921 0)
(-0.00386905 -0.000662786 0)
(-0.00242534 -0.000470023 0)
(-0.00128881 -0.000336715 0)
(-0.000392423 -0.000237251 0)
(0.000289249 -0.000159156 0)
(0.000786504 -9.67398e-05 0)
(0.00112788 -5.14689e-05 0)
(0.00133217 -2.18253e-05 0)
(0.0014291 -6.84472e-06 0)
(0.00145189 -4.8812e-06 0)
(0.00142774 -1.25214e-05 0)
(0.0013783 -1.86595e-05 0)
(0.00131813 -2.17114e-05 0)
(0.00125143 -2.37356e-05 0)
(0.00118088 -2.53206e-05 0)
(0.00110852 -2.65227e-05 0)
(0.00103575 -2.7499e-05 0)
(0.000963656 -2.83424e-05 0)
(0.000893011 -2.90804e-05 0)
(0.0008244 -2.97813e-05 0)
(0.000758244 -3.04656e-05 0)
(0.000694831 -3.11232e-05 0)
(0.00063428 -3.17196e-05 0)
(0.000576349 -3.2124e-05 0)
(0.000520507 -3.21684e-05 0)
(0.000466482 -3.23183e-05 0)
(0.000414499 -3.26115e-05 0)
(0.000364865 -3.31221e-05 0)
(0.000317757 -3.36371e-05 0)
(0.000273135 -3.40641e-05 0)
(0.00023087 -3.44875e-05 0)
(0.000190736 -3.49246e-05 0)
(0.000152475 -3.52742e-05 0)
(0.000115962 -3.55244e-05 0)
(8.11846e-05 -3.58106e-05 0)
(4.80505e-05 -3.61759e-05 0)
(1.63457e-05 -3.64768e-05 0)
(-1.39706e-05 -3.67064e-05 0)
(-4.26369e-05 -3.70319e-05 0)
(-6.95617e-05 -3.74494e-05 0)
(-9.51494e-05 -3.77429e-05 0)
(-0.000119911 -3.78564e-05 0)
(-0.000143853 -3.80287e-05 0)
(-0.000166485 -3.84347e-05 0)
(-0.000187621 -3.88779e-05 0)
(-0.000207883 -3.90068e-05 0)
(-0.000228174 -3.88355e-05 0)
(-0.000248729 -3.87573e-05 0)
(-0.000268943 -3.90116e-05 0)
(-0.000288363 -3.93488e-05 0)
(-0.000307563 -3.93069e-05 0)
(-0.000327827 -3.88183e-05 0)
(-0.00034993 -3.8312e-05 0)
(-0.000373389 -3.82187e-05 0)
(-0.000396967 -3.84178e-05 0)
(-0.000420355 -3.85139e-05 0)
(-0.000444662 -3.80687e-05 0)
(-0.000471192 -3.73295e-05 0)
(-0.000499923 -3.69952e-05 0)
(-0.000529163 -3.75432e-05 0)
(-0.000557354 -3.80657e-05 0)
(-0.000584351 -3.8045e-05 0)
(-0.000611017 -3.78489e-05 0)
(-0.000638243 -3.75144e-05 0)
(-0.000666101 -3.74595e-05 0)
(-0.000693519 -3.80301e-05 0)
(-0.00071905 -3.85294e-05 0)
(-0.000741721 -3.9293e-05 0)
(-0.000761778 -3.98082e-05 0)
(-0.000781075 -3.95798e-05 0)
(-0.000802031 -3.87738e-05 0)
(-0.00082581 -3.80707e-05 0)
(-0.000851607 -3.80887e-05 0)
(-0.00087784 -3.83289e-05 0)
(-0.00090336 -3.86863e-05 0)
(-0.000927952 -3.89154e-05 0)
(-0.000952387 -3.87695e-05 0)
(-0.000977805 -3.83008e-05 0)
(-0.00100474 -3.78731e-05 0)
(-0.00103244 -3.78728e-05 0)
(-0.00105926 -3.84091e-05 0)
(-0.00108363 -3.91701e-05 0)
(-0.00110495 -3.96948e-05 0)
(-0.00112395 -4.01091e-05 0)
(-0.00114245 -3.99481e-05 0)
(-0.0011627 -3.92681e-05 0)
(-0.00118644 -3.85397e-05 0)
(-0.00121405 -3.76322e-05 0)
(-0.00124431 -3.7148e-05 0)
(-0.00127496 -3.74318e-05 0)
(-0.0013036 -3.82903e-05 0)
(-0.00132877 -3.91746e-05 0)
(-0.00135056 -3.96352e-05 0)
(-0.00137027 -3.98956e-05 0)
(-0.00138984 -3.96543e-05 0)
(-0.00141118 -3.90737e-05 0)
(-0.00143562 -3.84921e-05 0)
(-0.00146351 -3.76634e-05 0)
(-0.00149407 -3.70789e-05 0)
(-0.00152564 -3.7021e-05 0)
(-0.00155636 -3.74641e-05 0)
(-0.00158474 -3.8201e-05 0)
(-0.00161027 -3.89126e-05 0)
(-0.00163365 -3.91726e-05 0)
(-0.00165632 -3.88672e-05 0)
(-0.00167953 -3.86587e-05 0)
(-0.00170421 -3.8458e-05 0)
(-0.00173136 -3.77589e-05 0)
(-0.00176156 -3.69029e-05 0)
(-0.00179452 -3.62243e-05 0)
(-0.00182923 -3.58711e-05 0)
(-0.00186446 -3.58598e-05 0)
(-0.00189904 -3.61265e-05 0)
(-0.00193209 -3.65656e-05 0)
(-0.00196322 -3.70386e-05 0)
(-0.00199264 -3.73568e-05 0)
(-0.00202111 -3.73428e-05 0)
(-0.00204947 -3.71456e-05 0)
(-0.00207837 -3.71599e-05 0)
(-0.00210857 -3.67851e-05 0)
(-0.00214095 -3.61208e-05 0)
(-0.00217609 -3.53734e-05 0)
(-0.00221405 -3.46541e-05 0)
(-0.00225461 -3.40186e-05 0)
(-0.00229732 -3.35028e-05 0)
(-0.00234158 -3.3135e-05 0)
(-0.00238674 -3.29369e-05 0)
(-0.00243215 -3.29061e-05 0)
(-0.00247719 -3.30167e-05 0)
(-0.00252143 -3.32064e-05 0)
(-0.00256469 -3.33462e-05 0)
(-0.00260713 -3.3285e-05 0)
(-0.00264901 -3.31054e-05 0)
(-0.00269032 -3.31558e-05 0)
(-0.00273102 -3.3256e-05 0)
(-0.00277132 -3.32634e-05 0)
(-0.00281162 -3.31436e-05 0)
(-0.00285245 -3.28832e-05 0)
(-0.00289429 -3.24972e-05 0)
(-0.0029375 -3.20561e-05 0)
(-0.00298231 -3.15771e-05 0)
(-0.00302893 -3.10573e-05 0)
(-0.00307755 -3.05005e-05 0)
(-0.00312835 -2.99217e-05 0)
(-0.00318142 -2.93418e-05 0)
(-0.00323685 -2.87529e-05 0)
(-0.00329484 -2.80965e-05 0)
(-0.00335569 -2.7366e-05 0)
(-0.00341965 -2.65764e-05 0)
(-0.00348695 -2.57375e-05 0)
(-0.00355779 -2.48505e-05 0)
(-0.00363242 -2.39079e-05 0)
(-0.00371112 -2.28968e-05 0)
(-0.00379417 -2.18064e-05 0)
(-0.00388194 -2.06234e-05 0)
(-0.00397482 -1.9334e-05 0)
(-0.00407324 -1.79371e-05 0)
(-0.00417761 -1.6469e-05 0)
(-0.00428819 -1.4997e-05 0)
(-0.00440527 -1.34877e-05 0)
(-0.0045294 -1.17902e-05 0)
(-0.0046612 -9.9936e-06 0)
(-0.0048014 -7.98957e-06 0)
(-0.00495107 -5.52098e-06 0)
(-0.00511146 -2.6845e-06 0)
(-0.00528371 4.45804e-07 0)
(-0.00546886 3.85668e-06 0)
(-0.00566796 7.58023e-06 0)
(-0.00588227 1.17676e-05 0)
(-0.00611344 1.67209e-05 0)
(-0.00636354 2.27115e-05 0)
(-0.00663486 2.98558e-05 0)
(-0.00692989 3.84029e-05 0)
(-0.00725149 4.87545e-05 0)
(-0.00760291 6.13486e-05 0)
(-0.00798761 7.65838e-05 0)
(-0.00840936 9.5069e-05 0)
(-0.00887231 0.00011762 0)
(-0.00938079 0.000145148 0)
(-0.00994005 0.000179448 0)
(-0.0105601 0.000224824 0)
(-0.0112649 0.000291073 0)
(-0.0121086 0.000396858 0)
(-0.0131925 0.000566803 0)
(-0.0146689 0.000816718 0)
(-0.0166981 0.00112672 0)
(-0.0193564 0.00142161 0)
(-0.0225438 0.00159331 0)
(-0.0259512 0.0015559 0)
(-0.0289718 0.00122798 0)
(-0.0303919 0.00034849 0)
(-0.0284604 -0.00177957 0)
(-0.0215843 -0.00566651 0)
(-0.00971398 -0.0106811 0)
(-0.0101768 0.0216981 0)
(-0.016022 0.00235429 0)
(-0.0166858 -0.00425708 0)
(-0.0150723 -0.00499491 0)
(-0.0128481 -0.00427057 0)
(-0.0106957 -0.00341388 0)
(-0.00879025 -0.00272199 0)
(-0.00712994 -0.00219521 0)
(-0.00568563 -0.00177741 0)
(-0.00443225 -0.00142093 0)
(-0.00335652 -0.00109905 0)
(-0.00245107 -0.00080108 0)
(-0.00171348 -0.000534271 0)
(-0.0011414 -0.000307206 0)
(-0.000725779 -0.000128788 0)
(-0.000447751 -2.17224e-06 0)
(-0.000282363 7.81248e-05 0)
(-0.000206156 0.000126735 0)
(-0.000189276 0.000152892 0)
(-0.000208219 0.000167077 0)
(-0.0002498 0.000175091 0)
(-0.000305821 0.00017923 0)
(-0.000371158 0.000180327 0)
(-0.000441907 0.000179163 0)
(-0.000515234 0.00017642 0)
(-0.000589059 0.000172515 0)
(-0.000661926 0.000167776 0)
(-0.000732833 0.000162559 0)
(-0.000801132 0.000157289 0)
(-0.000866652 0.00015257 0)
(-0.000929462 0.000148826 0)
(-0.000989592 0.000144903 0)
(-0.00104672 0.000140643 0)
(-0.00110078 0.000135764 0)
(-0.00115159 0.000130931 0)
(-0.00119891 0.000126442 0)
(-0.00124278 0.000122182 0)
(-0.00128373 0.000118219 0)
(-0.0013221 0.00011472 0)
(-0.00135782 0.0001115 0)
(-0.0013909 0.000108281 0)
(-0.00142169 0.0001052 0)
(-0.00145039 0.000102489 0)
(-0.00147678 9.97447e-05 0)
(-0.00150053 9.65517e-05 0)
(-0.00152195 9.34624e-05 0)
(-0.00154168 9.1378e-05 0)
(-0.0015599 9.00514e-05 0)
(-0.00157632 8.82233e-05 0)
(-0.00159073 8.54581e-05 0)
(-0.00160353 8.30041e-05 0)
(-0.00161543 8.22745e-05 0)
(-0.00162688 8.28655e-05 0)
(-0.00163789 8.29517e-05 0)
(-0.00164825 8.16987e-05 0)
(-0.00165816 8.04735e-05 0)
(-0.00166837 8.13004e-05 0)
(-0.00167976 8.43334e-05 0)
(-0.00169276 8.74957e-05 0)
(-0.00170696 8.87817e-05 0)
(-0.00172172 8.85599e-05 0)
(-0.00173707 8.90772e-05 0)
(-0.00175389 9.21394e-05 0)
(-0.00177306 9.66212e-05 0)
(-0.00179452 9.94576e-05 0)
(-0.00181705 9.87687e-05 0)
(-0.00183918 9.6522e-05 0)
(-0.00186028 9.51023e-05 0)
(-0.00188081 9.51956e-05 0)
(-0.00190146 9.65259e-05 0)
(-0.00192235 9.69387e-05 0)
(-0.00194253 9.45475e-05 0)
(-0.00196037 9.01998e-05 0)
(-0.00197493 8.48742e-05 0)
(-0.00198669 8.15768e-05 0)
(-0.00199755 8.24887e-05 0)
(-0.00200975 8.68563e-05 0)
(-0.00202462 9.15675e-05 0)
(-0.00204183 9.37869e-05 0)
(-0.00205995 9.36409e-05 0)
(-0.00207778 9.2125e-05 0)
(-0.00209496 9.10689e-05 0)
(-0.0021121 9.18721e-05 0)
(-0.00213015 9.4293e-05 0)
(-0.00214951 9.64958e-05 0)
(-0.00216939 9.64016e-05 0)
(-0.00218816 9.31641e-05 0)
(-0.00220409 8.78874e-05 0)
(-0.00221629 8.29067e-05 0)
(-0.0022257 8.00419e-05 0)
(-0.00223451 8.13027e-05 0)
(-0.00224541 8.64673e-05 0)
(-0.00226062 9.32416e-05 0)
(-0.00228045 9.94919e-05 0)
(-0.00230326 0.000102447 0)
(-0.00232659 0.000100879 0)
(-0.00234786 9.56468e-05 0)
(-0.00236516 8.91679e-05 0)
(-0.00237824 8.41057e-05 0)
(-0.00238863 8.17972e-05 0)
(-0.00239869 8.33968e-05 0)
(-0.00241101 8.81635e-05 0)
(-0.00242746 9.41702e-05 0)
(-0.00244831 0.000100007 0)
(-0.0024723 0.00010346 0)
(-0.00249745 0.000103538 0)
(-0.00252176 0.000100562 0)
(-0.00254361 9.57695e-05 0)
(-0.00256235 9.09705e-05 0)
(-0.0025785 8.81138e-05 0)
(-0.0025935 8.80856e-05 0)
(-0.00260912 8.99485e-05 0)
(-0.00262705 9.34831e-05 0)
(-0.00264849 9.87218e-05 0)
(-0.0026738 0.000104121 0)
(-0.00270242 0.00010821 0)
(-0.00273316 0.000110223 0)
(-0.00276467 0.000110031 0)
(-0.00279561 0.000107992 0)
(-0.00282497 0.000104809 0)
(-0.00285229 0.000101404 0)
(-0.00287773 9.87906e-05 0)
(-0.00290203 9.77667e-05 0)
(-0.00292628 9.82968e-05 0)
(-0.00295164 9.98029e-05 0)
(-0.00297923 0.000103128 0)
(-0.00300993 0.000107772 0)
(-0.00304427 0.0001129 0)
(-0.00308234 0.000117849 0)
(-0.00312389 0.000122161 0)
(-0.00316833 0.000125517 0)
(-0.00321493 0.000127731 0)
(-0.00326285 0.000128731 0)
(-0.00331131 0.000128575 0)
(-0.00335957 0.000127455 0)
(-0.00340709 0.000125712 0)
(-0.00345353 0.000123849 0)
(-0.00349879 0.000122352 0)
(-0.00354302 0.000121199 0)
(-0.00358644 0.000119888 0)
(-0.00362938 0.000118832 0)
(-0.00367225 0.00011842 0)
(-0.00371558 0.00011883 0)
(-0.00376003 0.000120156 0)
(-0.00380634 0.00012232 0)
(-0.00385499 0.000124981 0)
(-0.00390625 0.000128037 0)
(-0.0039604 0.000131492 0)
(-0.00401779 0.000135309 0)
(-0.00407874 0.000139398 0)
(-0.00414341 0.000143661 0)
(-0.00421192 0.000148149 0)
(-0.00428459 0.000153139 0)
(-0.00436194 0.000158659 0)
(-0.00444443 0.000164616 0)
(-0.00453241 0.000170967 0)
(-0.00462623 0.000177731 0)
(-0.00472628 0.000184967 0)
(-0.004833 0.000192743 0)
(-0.00494687 0.00020112 0)
(-0.00506845 0.000210172 0)
(-0.00519836 0.000219983 0)
(-0.00533727 0.000230586 0)
(-0.00548589 0.000241865 0)
(-0.00564475 0.000253631 0)
(-0.00581442 0.000266101 0)
(-0.00599587 0.000279912 0)
(-0.00619026 0.000294879 0)
(-0.0063987 0.00031131 0)
(-0.00662257 0.000329957 0)
(-0.00686354 0.000350681 0)
(-0.00712326 0.000373317 0)
(-0.00740335 0.000397869 0)
(-0.00770548 0.00042447 0)
(-0.00803142 0.000453506 0)
(-0.00838304 0.000485603 0)
(-0.00876224 0.000521233 0)
(-0.00917083 0.000560473 0)
(-0.00961026 0.000603516 0)
(-0.0100816 0.000650733 0)
(-0.0105857 0.000702364 0)
(-0.0111227 0.000758159 0)
(-0.0116914 0.000817882 0)
(-0.0122898 0.000881083 0)
(-0.0129141 0.000946925 0)
(-0.0135587 0.0010174 0)
(-0.0142158 0.00110417 0)
(-0.0148802 0.00123916 0)
(-0.0155606 0.001482 0)
(-0.0162986 0.00190902 0)
(-0.0171795 0.00256886 0)
(-0.0183241 0.0034131 0)
(-0.0198638 0.00424024 0)
(-0.0218831 0.00470189 0)
(-0.0243022 0.00437883 0)
(-0.026669 0.00284755 0)
(-0.0277835 -0.000416984 0)
(-0.0253092 -0.00622688 0)
(-0.0185094 -0.0151461 0)
(-0.00721953 -0.0246935 0)
(-0.00810739 0.0335078 0)
(-0.0134203 0.00756484 0)
(-0.0156663 -0.00374302 0)
(-0.0156188 -0.00605465 0)
(-0.0147174 -0.00572229 0)
(-0.0135644 -0.00489362 0)
(-0.012404 -0.00411874 0)
(-0.011316 -0.00347767 0)
(-0.0103236 -0.0029425 0)
(-0.00942832 -0.00247485 0)
(-0.00862433 -0.00204847 0)
(-0.00790376 -0.00165106 0)
(-0.00726057 -0.00128314 0)
(-0.00669199 -0.000951695 0)
(-0.00619756 -0.000666116 0)
(-0.00577691 -0.000433099 0)
(-0.00542727 -0.000252978 0)
(-0.00514314 -0.00012308 0)
(-0.00492188 -3.48506e-05 0)
(-0.00475639 2.40275e-05 0)
(-0.0046353 6.23129e-05 0)
(-0.00454517 8.5998e-05 0)
(-0.00447679 9.98298e-05 0)
(-0.00442427 0.000106925 0)
(-0.00438333 0.000109254 0)
(-0.00435086 0.000108156 0)
(-0.0043246 0.000104603 0)
(-0.00430278 9.93769e-05 0)
(-0.0042841 9.34232e-05 0)
(-0.00426757 8.75611e-05 0)
(-0.00425226 8.21235e-05 0)
(-0.00423773 7.64141e-05 0)
(-0.00422362 7.01405e-05 0)
(-0.00420984 6.30286e-05 0)
(-0.00419597 5.57708e-05 0)
(-0.00418158 4.87589e-05 0)
(-0.00416663 4.21117e-05 0)
(-0.00415128 3.59435e-05 0)
(-0.00413548 3.03523e-05 0)
(-0.00411913 2.51475e-05 0)
(-0.00410231 2.00838e-05 0)
(-0.00408507 1.51705e-05 0)
(-0.00406711 1.04473e-05 0)
(-0.00404817 5.54138e-06 0)
(-0.00402838 3.83814e-07 0)
(-0.0040081 -4.30214e-06 0)
(-0.00398729 -7.8795e-06 0)
(-0.00396558 -1.0904e-05 0)
(-0.00394294 -1.45008e-05 0)
(-0.00391988 -1.86666e-05 0)
(-0.0038968 -2.19977e-05 0)
(-0.00387347 -2.34093e-05 0)
(-0.00384942 -2.36358e-05 0)
(-0.00382474 -2.43877e-05 0)
(-0.00380016 -2.60679e-05 0)
(-0.0037763 -2.70757e-05 0)
(-0.00375305 -2.56289e-05 0)
(-0.00372987 -2.19911e-05 0)
(-0.00370661 -1.84415e-05 0)
(-0.00368368 -1.68341e-05 0)
(-0.00366162 -1.65226e-05 0)
(-0.00364056 -1.4937e-05 0)
(-0.00362016 -1.0454e-05 0)
(-0.00360007 -4.70453e-06 0)
(-0.00358037 -1.00246e-06 0)
(-0.00356154 -1.10084e-06 0)
(-0.0035437 -3.37821e-06 0)
(-0.00352645 -5.19631e-06 0)
(-0.00350926 -5.23292e-06 0)
(-0.0034916 -4.07141e-06 0)
(-0.0034733 -4.23785e-06 0)
(-0.00345451 -7.77581e-06 0)
(-0.00343527 -1.41137e-05 0)
(-0.00341572 -2.10923e-05 0)
(-0.00339598 -2.51879e-05 0)
(-0.00337589 -2.42527e-05 0)
(-0.00335527 -1.93089e-05 0)
(-0.00333438 -1.37608e-05 0)
(-0.00331374 -1.06971e-05 0)
(-0.00329364 -1.0615e-05 0)
(-0.00327413 -1.22055e-05 0)
(-0.00325509 -1.32014e-05 0)
(-0.00323621 -1.2044e-05 0)
(-0.00321721 -9.16353e-06 0)
(-0.00319795 -6.78082e-06 0)
(-0.00317838 -7.34625e-06 0)
(-0.00315852 -1.18581e-05 0)
(-0.00313825 -1.90151e-05 0)
(-0.0031174 -2.58954e-05 0)
(-0.00309622 -2.95761e-05 0)
(-0.00307492 -2.7819e-05 0)
(-0.00305377 -2.09261e-05 0)
(-0.00303333 -1.16473e-05 0)
(-0.00301367 -3.39525e-06 0)
(-0.00299449 4.67039e-07 0)
(-0.00297566 -1.50452e-06 0)
(-0.00295686 -8.2797e-06 0)
(-0.00293756 -1.69314e-05 0)
(-0.00291754 -2.40033e-05 0)
(-0.0028971 -2.70794e-05 0)
(-0.00287657 -2.48515e-05 0)
(-0.00285644 -1.81843e-05 0)
(-0.00283732 -9.51221e-06 0)
(-0.00281937 -1.40887e-06 0)
(-0.00280224 3.38141e-06 0)
(-0.00278554 3.6981e-06 0)
(-0.00276905 -1.93521e-08 0)
(-0.00275242 -6.12117e-06 0)
(-0.00273552 -1.2274e-05 0)
(-0.00271841 -1.61109e-05 0)
(-0.00270127 -1.63149e-05 0)
(-0.00268453 -1.31914e-05 0)
(-0.00266883 -7.28775e-06 0)
(-0.00265453 5.58327e-07 0)
(-0.00264158 8.41776e-06 0)
(-0.00262977 1.44405e-05 0)
(-0.00261879 1.76317e-05 0)
(-0.00260832 1.77687e-05 0)
(-0.00259808 1.53546e-05 0)
(-0.00258783 1.14017e-05 0)
(-0.00257751 7.18264e-06 0)
(-0.00256722 4.01022e-06 0)
(-0.00255715 2.89894e-06 0)
(-0.00254759 4.11876e-06 0)
(-0.00253904 7.36112e-06 0)
(-0.00253197 1.2923e-05 0)
(-0.00252654 2.01651e-05 0)
(-0.00252283 2.80972e-05 0)
(-0.00252085 3.58092e-05 0)
(-0.00252055 4.26175e-05 0)
(-0.00252175 4.80523e-05 0)
(-0.00252413 5.18197e-05 0)
(-0.00252743 5.38027e-05 0)
(-0.0025314 5.41049e-05 0)
(-0.00253579 5.30282e-05 0)
(-0.00254047 5.10465e-05 0)
(-0.00254532 4.8765e-05 0)
(-0.00255026 4.6757e-05 0)
(-0.00255526 4.52288e-05 0)
(-0.00256054 4.3999e-05 0)
(-0.00256641 4.34204e-05 0)
(-0.00257314 4.38506e-05 0)
(-0.002581 4.55556e-05 0)
(-0.00259042 4.87947e-05 0)
(-0.00260201 5.35041e-05 0)
(-0.00261601 5.88757e-05 0)
(-0.00263239 6.47951e-05 0)
(-0.00265123 7.13952e-05 0)
(-0.00267282 7.86793e-05 0)
(-0.00269743 8.64842e-05 0)
(-0.00272516 9.45503e-05 0)
(-0.0027559 0.000102912 0)
(-0.00278994 0.000112304 0)
(-0.00282784 0.00012278 0)
(-0.00287008 0.000134105 0)
(-0.00291697 0.000146168 0)
(-0.00296879 0.000159005 0)
(-0.00302588 0.000172723 0)
(-0.00308859 0.000187447 0)
(-0.00315733 0.000203283 0)
(-0.00323254 0.000220355 0)
(-0.00331472 0.000238818 0)
(-0.00340442 0.00025878 0)
(-0.00350224 0.000280133 0)
(-0.00360874 0.000302567 0)
(-0.00372445 0.000326326 0)
(-0.00385035 0.000352734 0)
(-0.00398727 0.000381472 0)
(-0.00413601 0.000412689 0)
(-0.00429763 0.000447526 0)
(-0.00447323 0.00048601 0)
(-0.00466405 0.000527989 0)
(-0.00487136 0.000573518 0)
(-0.00509644 0.000622764 0)
(-0.00534053 0.000676038 0)
(-0.00560479 0.000733785 0)
(-0.00589016 0.000796241 0)
(-0.00619723 0.000863073 0)
(-0.00652602 0.00093376 0)
(-0.00687586 0.00100795 0)
(-0.00724565 0.00108525 0)
(-0.00763331 0.00116404 0)
(-0.00803567 0.0012427 0)
(-0.00844892 0.00132 0)
(-0.00886892 0.00139391 0)
(-0.00929231 0.00146469 0)
(-0.00971654 0.00154171 0)
(-0.01014 0.00165719 0)
(-0.0105627 0.00187749 0)
(-0.0109905 0.00229824 0)
(-0.0114282 0.003 0)
(-0.0118676 0.00397866 0)
(-0.0123218 0.00508071 0)
(-0.0128695 0.00595801 0)
(-0.0136607 0.00603537 0)
(-0.0148306 0.00443914 0)
(-0.0161109 -0.000121688 0)
(-0.016053 -0.00881855 0)
(-0.0123491 -0.0223559 0)
(-0.00461478 -0.0357157 0)
(-0.00666579 0.0431623 0)
(-0.0117052 0.0125255 0)
(-0.0145164 -0.00232357 0)
(-0.0152625 -0.00611931 0)
(-0.0151392 -0.00632516 0)
(-0.0146693 -0.00565972 0)
(-0.0140894 -0.00490052 0)
(-0.0134943 -0.00421725 0)
(-0.0129212 -0.00362066 0)
(-0.0123812 -0.00308995 0)
(-0.011873 -0.00260588 0)
(-0.0113905 -0.00215825 0)
(-0.0109282 -0.00174584 0)
(-0.0104835 -0.00137294 0)
(-0.0100576 -0.00104574 0)
(-0.00965478 -0.000768582 0)
(-0.00928033 -0.000541584 0)
(-0.00893858 -0.000361589 0)
(-0.0086314 -0.000221801 0)
(-0.0083573 -0.000116743 0)
(-0.00811322 -4.01134e-05 0)
(-0.00789859 1.44367e-05 0)
(-0.00771021 5.27385e-05 0)
(-0.00754387 7.91394e-05 0)
(-0.0073958 9.67245e-05 0)
(-0.0072628 0.000107763 0)
(-0.00714231 0.00011399 0)
(-0.00703202 0.000116885 0)
(-0.00693009 0.000117474 0)
(-0.00683518 0.000116761 0)
(-0.00674594 0.000115305 0)
(-0.0066614 0.000113002 0)
(-0.00658093 0.000109667 0)
(-0.00650427 0.000105193 0)
(-0.00643092 0.000100118 0)
(-0.00636033 9.48659e-05 0)
(-0.00629227 8.97123e-05 0)
(-0.00622655 8.50198e-05 0)
(-0.00616285 8.09096e-05 0)
(-0.00610097 7.71874e-05 0)
(-0.00604083 7.34347e-05 0)
(-0.00598222 6.94176e-05 0)
(-0.00592471 6.53069e-05 0)
(-0.00586804 6.10424e-05 0)
(-0.00581236 5.66929e-05 0)
(-0.00575777 5.27168e-05 0)
(-0.00570399 4.9452e-05 0)
(-0.00565054 4.65573e-05 0)
(-0.00559744 4.34011e-05 0)
(-0.0055452 4.00485e-05 0)
(-0.00549402 3.73808e-05 0)
(-0.00544337 3.60524e-05 0)
(-0.00539256 3.56291e-05 0)
(-0.00534168 3.51165e-05 0)
(-0.00529145 3.43327e-05 0)
(-0.00524236 3.43176e-05 0)
(-0.00519392 3.61538e-05 0)
(-0.00514518 3.95678e-05 0)
(-0.00509579 4.29614e-05 0)
(-0.00504631 4.49972e-05 0)
(-0.00499746 4.61067e-05 0)
(-0.00494927 4.82571e-05 0)
(-0.00490099 5.27281e-05 0)
(-0.00485189 5.80898e-05 0)
(-0.00480214 6.1869e-05 0)
(-0.00475275 6.27863e-05 0)
(-0.00470463 6.18e-05 0)
(-0.00465774 6.07939e-05 0)
(-0.00461126 6.08598e-05 0)
(-0.00456425 6.15252e-05 0)
(-0.00451648 6.09644e-05 0)
(-0.00446864 5.77024e-05 0)
(-0.00442174 5.21136e-05 0)
(-0.00437642 4.6159e-05 0)
(-0.00433239 4.26222e-05 0)
(-0.00428842 4.31585e-05 0)
(-0.00424318 4.70146e-05 0)
(-0.00419627 5.16183e-05 0)
(-0.0041483 5.45347e-05 0)
(-0.00410034 5.51029e-05 0)
(-0.00405316 5.42878e-05 0)
(-0.00400677 5.38338e-05 0)
(-0.00396049 5.49301e-05 0)
(-0.00391348 5.7222e-05 0)
(-0.00386542 5.89728e-05 0)
(-0.00381671 5.8245e-05 0)
(-0.00376835 5.42275e-05 0)
(-0.00372124 4.79494e-05 0)
(-0.0036757 4.18554e-05 0)
(-0.00363147 3.86528e-05 0)
(-0.00358746 4.02435e-05 0)
(-0.00354236 4.63616e-05 0)
(-0.00349549 5.46424e-05 0)
(-0.00344676 6.19715e-05 0)
(-0.00339679 6.55479e-05 0)
(-0.00334692 6.41331e-05 0)
(-0.00329836 5.85049e-05 0)
(-0.0032516 5.10499e-05 0)
(-0.00320664 4.47636e-05 0)
(-0.00316293 4.20576e-05 0)
(-0.00311936 4.41449e-05 0)
(-0.00307491 5.03077e-05 0)
(-0.00302916 5.83762e-05 0)
(-0.00298217 6.58481e-05 0)
(-0.0029343 7.04042e-05 0)
(-0.00288632 7.10738e-05 0)
(-0.00283923 6.82139e-05 0)
(-0.00279357 6.32418e-05 0)
(-0.00274957 5.81739e-05 0)
(-0.00270704 5.50398e-05 0)
(-0.00266541 5.50978e-05 0)
(-0.00262403 5.84243e-05 0)
(-0.00258253 6.44381e-05 0)
(-0.00254066 7.20428e-05 0)
(-0.00249828 7.96174e-05 0)
(-0.00245538 8.56593e-05 0)
(-0.00241223 8.90886e-05 0)
(-0.00236941 8.96491e-05 0)
(-0.00232743 8.78313e-05 0)
(-0.00228664 8.46116e-05 0)
(-0.00224723 8.11937e-05 0)
(-0.00220921 7.87976e-05 0)
(-0.00217239 7.83778e-05 0)
(-0.00213646 8.03221e-05 0)
(-0.00210118 8.45082e-05 0)
(-0.00206635 9.08326e-05 0)
(-0.00203167 9.86634e-05 0)
(-0.00199701 0.0001071 0)
(-0.00196236 0.000115281 0)
(-0.00192782 0.000122523 0)
(-0.00189356 0.000128407 0)
(-0.00185975 0.000132699 0)
(-0.00182662 0.000135264 0)
(-0.00179437 0.000136217 0)
(-0.00176317 0.000135865 0)
(-0.00173317 0.000134655 0)
(-0.00170445 0.000133121 0)
(-0.00167698 0.000131765 0)
(-0.0016507 0.000130865 0)
(-0.00162568 0.000130485 0)
(-0.00160204 0.000130907 0)
(-0.00157981 0.000132408 0)
(-0.001559 0.00013533 0)
(-0.00153977 0.000140167 0)
(-0.00152249 0.000146977 0)
(-0.00150718 0.000154239 0)
(-0.00149363 0.000161896 0)
(-0.00148181 0.00017036 0)
(-0.00147188 0.000179746 0)
(-0.00146407 0.000189828 0)
(-0.00145839 0.000200099 0)
(-0.00145466 0.000210447 0)
(-0.00145304 0.000222331 0)
(-0.00145398 0.000235824 0)
(-0.00145786 0.000250478 0)
(-0.0014649 0.000266089 0)
(-0.00147528 0.000282688 0)
(-0.0014892 0.00030041 0)
(-0.00150689 0.000319412 0)
(-0.00152859 0.000339823 0)
(-0.00155455 0.000361811 0)
(-0.00158507 0.00038553 0)
(-0.00162042 0.000411132 0)
(-0.00166098 0.0004386 0)
(-0.00170721 0.000467717 0)
(-0.00175967 0.000498664 0)
(-0.00181897 0.000532776 0)
(-0.00188528 0.0005698 0)
(-0.00195881 0.000609733 0)
(-0.00204006 0.0006539 0)
(-0.00212962 0.000702557 0)
(-0.00222819 0.000755531 0)
(-0.00233641 0.000812834 0)
(-0.00245486 0.000874611 0)
(-0.00258401 0.000941085 0)
(-0.0027242 0.00101246 0)
(-0.00287553 0.00108867 0)
(-0.00303782 0.0011691 0)
(-0.0032105 0.0012526 0)
(-0.00339257 0.00133821 0)
(-0.00358283 0.00142533 0)
(-0.00377953 0.00151179 0)
(-0.00398065 0.00159521 0)
(-0.00418437 0.00167474 0)
(-0.00438946 0.00175014 0)
(-0.00459793 0.00182498 0)
(-0.0048138 0.00191185 0)
(-0.00504342 0.00204251 0)
(-0.00528812 0.00227498 0)
(-0.00553736 0.00268273 0)
(-0.00575262 0.00331681 0)
(-0.00585692 0.00416439 0)
(-0.00578278 0.00512072 0)
(-0.00553772 0.00595864 0)
(-0.00526692 0.00627613 0)
(-0.00531662 0.00535449 0)
(-0.00608918 0.00157253 0)
(-0.00774002 -0.00823139 0)
(-0.00710309 -0.025814 0)
(-0.00276374 -0.0425871 0)
(-0.00561449 0.0513392 0)
(-0.0104501 0.0173194 0)
(-0.0134143 -0.000436368 0)
(-0.0144952 -0.00564808 0)
(-0.0147296 -0.00642902 0)
(-0.0146092 -0.00599246 0)
(-0.0143441 -0.00531889 0)
(-0.0140236 -0.00466049 0)
(-0.0136859 -0.00406494 0)
(-0.013346 -0.00352934 0)
(-0.013007 -0.00304253 0)
(-0.0126672 -0.00259652 0)
(-0.0123239 -0.00218857 0)
(-0.0119761 -0.00181978 0)
(-0.0116257 -0.00149294 0)
(-0.0112769 -0.00121011 0)
(-0.0109353 -0.000971091 0)
(-0.0106064 -0.000773492 0)
(-0.0102944 -0.000613152 0)
(-0.0100019 -0.000485349 0)
(-0.00973022 -0.000384746 0)
(-0.00947907 -0.000306334 0)
(-0.00924736 -0.000246097 0)
(-0.0090337 -0.000200416 0)
(-0.00883649 -0.000166165 0)
(-0.00865416 -0.000140805 0)
(-0.00848511 -0.000122287 0)
(-0.0083281 -0.000108871 0)
(-0.0081819 -9.93557e-05 0)
(-0.008045 -9.26159e-05 0)
(-0.00791609 -8.79022e-05 0)
(-0.0077941 -8.49285e-05 0)
(-0.00767831 -8.36046e-05 0)
(-0.00756828 -8.38102e-05 0)
(-0.00746352 -8.51126e-05 0)
(-0.00736344 -8.70989e-05 0)
(-0.00726751 -8.94072e-05 0)
(-0.00717537 -9.15698e-05 0)
(-0.00708666 -9.33642e-05 0)
(-0.00700096 -9.49494e-05 0)
(-0.006918 -9.68423e-05 0)
(-0.0068376 -9.93671e-05 0)
(-0.00675944 -0.00010221 0)
(-0.00668322 -0.000105212 0)
(-0.00660893 -0.000108251 0)
(-0.00653665 -0.000111057 0)
(-0.00646614 -0.000113464 0)
(-0.00639696 -0.000115657 0)
(-0.00632899 -0.000117944 0)
(-0.00626248 -0.000120251 0)
(-0.00619759 -0.000122069 0)
(-0.0061339 -0.000123028 0)
(-0.0060708 -0.000123335 0)
(-0.00600815 -0.000123478 0)
(-0.00594636 -0.000123513 0)
(-0.0058857 -0.000122851 0)
(-0.00582578 -0.000120923 0)
(-0.00576576 -0.000117975 0)
(-0.00570519 -0.000115031 0)
(-0.00564442 -0.00011299 0)
(-0.00558406 -0.000111618 0)
(-0.00552422 -0.00010951 0)
(-0.00546418 -0.000105684 0)
(-0.00540315 -0.000101266 0)
(-0.00534107 -9.79274e-05 0)
(-0.00527881 -9.65135e-05 0)
(-0.00521733 -9.6547e-05 0)
(-0.00515688 -9.69059e-05 0)
(-0.00509691 -9.68824e-05 0)
(-0.00503663 -9.67643e-05 0)
(-0.0049758 -9.76265e-05 0)
(-0.00491511 -0.000100311 0)
(-0.00485562 -0.000104532 0)
(-0.00479804 -0.000108909 0)
(-0.00474212 -0.000111614 0)
(-0.00468664 -0.000111594 0)
(-0.00463017 -0.000109307 0)
(-0.00457204 -0.000106342 0)
(-0.00451258 -0.000104275 0)
(-0.00445274 -0.000103655 0)
(-0.00439335 -0.000103944 0)
(-0.00433458 -0.000104082 0)
(-0.00427584 -0.000103362 0)
(-0.00421637 -0.000102033 0)
(-0.00415582 -0.000101197 0)
(-0.00409466 -0.000102079 0)
(-0.00403396 -0.000105166 0)
(-0.0039748 -0.000109727 0)
(-0.00391767 -0.000114075 0)
(-0.00386222 -0.000116308 0)
(-0.00380717 -0.000115166 0)
(-0.00375094 -0.000110847 0)
(-0.00369252 -0.000104966 0)
(-0.00363165 -9.9718e-05 0)
(-0.00356904 -9.70471e-05 0)
(-0.00350629 -9.78411e-05 0)
(-0.00344493 -0.000101599 0)
(-0.0033858 -0.000106684 0)
(-0.00332906 -0.000110982 0)
(-0.00327404 -0.00011271 0)
(-0.00321931 -0.000110993 0)
(-0.00316351 -0.000106296 0)
(-0.00310588 -0.000100123 0)
(-0.00304635 -9.43108e-05 0)
(-0.00298545 -9.05039e-05 0)
(-0.00292419 -8.94312e-05 0)
(-0.0028639 -9.087e-05 0)
(-0.00280538 -9.38154e-05 0)
(-0.00274896 -9.68154e-05 0)
(-0.00269445 -9.84068e-05 0)
(-0.0026411 -9.76358e-05 0)
(-0.00258796 -9.43194e-05 0)
(-0.00253429 -8.88803e-05 0)
(-0.00247956 -8.22168e-05 0)
(-0.0024235 -7.5516e-05 0)
(-0.00236653 -6.98928e-05 0)
(-0.00230927 -6.63169e-05 0)
(-0.00225236 -6.5026e-05 0)
(-0.00219642 -6.55715e-05 0)
(-0.00214194 -6.71445e-05 0)
(-0.00208913 -6.87846e-05 0)
(-0.00203795 -6.95419e-05 0)
(-0.00198811 -6.8691e-05 0)
(-0.00193915 -6.58754e-05 0)
(-0.00189062 -6.10999e-05 0)
(-0.00184209 -5.45299e-05 0)
(-0.00179319 -4.66604e-05 0)
(-0.00174373 -3.8181e-05 0)
(-0.00169371 -2.97892e-05 0)
(-0.00164327 -2.20965e-05 0)
(-0.00159264 -1.56163e-05 0)
(-0.00154224 -1.06317e-05 0)
(-0.00149253 -7.1169e-06 0)
(-0.00144382 -4.93536e-06 0)
(-0.00139641 -3.81411e-06 0)
(-0.00135054 -3.37402e-06 0)
(-0.00130632 -3.18119e-06 0)
(-0.00126379 -2.83177e-06 0)
(-0.00122291 -2.04322e-06 0)
(-0.00118366 -6.54379e-07 0)
(-0.00114606 1.55812e-06 0)
(-0.00111004 4.8323e-06 0)
(-0.00107555 9.5548e-06 0)
(-0.00104253 1.63367e-05 0)
(-0.00101089 2.52922e-05 0)
(-0.000980522 3.45066e-05 0)
(-0.000951413 4.39705e-05 0)
(-0.000923586 5.4313e-05 0)
(-0.000897115 6.57439e-05 0)
(-0.000872084 7.79998e-05 0)
(-0.00084854 9.04213e-05 0)
(-0.00082649 0.000102776 0)
(-0.000806049 0.000116994 0)
(-0.000787319 0.000133182 0)
(-0.000770432 0.000150763 0)
(-0.000755533 0.00016948 0)
(-0.000742756 0.00018936 0)
(-0.000732216 0.000210549 0)
(-0.000724047 0.000233204 0)
(-0.000718356 0.000257486 0)
(-0.00071527 0.00028356 0)
(-0.000714922 0.000311612 0)
(-0.000717404 0.000341792 0)
(-0.000722881 0.000374185 0)
(-0.000731654 0.000408786 0)
(-0.000744137 0.000445834 0)
(-0.000760572 0.00048616 0)
(-0.00078078 0.000529514 0)
(-0.000804548 0.00057582 0)
(-0.000831917 0.000626795 0)
(-0.000863112 0.00068284 0)
(-0.000898354 0.000743718 0)
(-0.000937751 0.000809303 0)
(-0.000981324 0.000879655 0)
(-0.001029 0.000954872 0)
(-0.00108058 0.00103496 0)
(-0.00113571 0.00111961 0)
(-0.00119399 0.00120814 0)
(-0.00125488 0.00129904 0)
(-0.00131817 0.00139093 0)
(-0.00138351 0.00148322 0)
(-0.00145037 0.00157379 0)
(-0.00151921 0.00166047 0)
(-0.00159147 0.00174309 0)
(-0.0016698 0.00182323 0)
(-0.00175951 0.00190734 0)
(-0.00186689 0.00201079 0)
(-0.00199592 0.00216253 0)
(-0.0021411 0.00240925 0)
(-0.00227513 0.00279947 0)
(-0.00234412 0.00335098 0)
(-0.0022755 0.00403622 0)
(-0.00200553 0.0047723 0)
(-0.00152682 0.00541486 0)
(-0.000937413 0.00572319 0)
(-0.000530434 0.00522259 0)
(-0.000692783 0.00255885 0)
(-0.00220004 -0.00656609 0)
(-0.00330833 -0.0267645 0)
(-0.00149823 -0.0463975 0)
(-0.00481489 0.0585338 0)
(-0.00947467 0.0219266 0)
(-0.0123955 0.00167369 0)
(-0.0136167 -0.00493874 0)
(-0.01401 -0.00628363 0)
(-0.0140602 -0.00608363 0)
(-0.0139539 -0.00551295 0)
(-0.0137734 -0.00489835 0)
(-0.0135555 -0.00431973 0)
(-0.0133167 -0.00379002 0)
(-0.0130638 -0.00330601 0)
(-0.0127985 -0.00286296 0)
(-0.0125213 -0.00245838 0)
(-0.0122329 -0.00209211 0)
(-0.0119357 -0.00176509 0)
(-0.0116335 -0.00147798 0)
(-0.0113307 -0.00123006 0)
(-0.0110322 -0.00101932 0)
(-0.0107421 -0.000842769 0)
(-0.0104637 -0.000696839 0)
(-0.0101989 -0.00057743 0)
(-0.00994874 -0.000480456 0)
(-0.0097136 -0.000402216 0)
(-0.00949319 -0.000339389 0)
(-0.00928692 -0.000289096 0)
(-0.00909397 -0.000248919 0)
(-0.0089134 -0.000216857 0)
(-0.00874424 -0.00019132 0)
(-0.00858551 -0.000170802 0)
(-0.00843613 -0.000154205 0)
(-0.00829508 -0.000140738 0)
(-0.00816142 -0.0001299 0)
(-0.00803447 -0.000121367 0)
(-0.00791375 -0.000114837 0)
(-0.00779876 -0.000109908 0)
(-0.00768895 -0.000106164 0)
(-0.00758387 -0.00010321 0)
(-0.00748312 -0.000100736 0)
(-0.00738619 -9.84719e-05 0)
(-0.00729253 -9.64562e-05 0)
(-0.00720184 -9.50742e-05 0)
(-0.00711409 -9.45588e-05 0)
(-0.00702911 -9.46146e-05 0)
(-0.00694657 -9.50267e-05 0)
(-0.00686632 -9.56437e-05 0)
(-0.00678831 -9.62644e-05 0)