/*--------------------------------*- C++ -*----------------------------------*\
  =========                 |
  \\      /  F ield         | OpenFOAM: The Open Source CFD Toolbox
   \\    /   O peration     | Website:  https://openfoam.org
    \\  /    A nd           | Version:  12
     \\/     M anipulation  |
\*---------------------------------------------------------------------------*/
FoamFile
{
    format      ascii;
    class       surfaceScalarField;
    location    "10.01";
    object      phi;
}
// * * * * * * * * * * * * * * * * * * * * * * * * * * * * * * * * * * * * * //

dimensions      [1 0 -1 0 0 0 0];

internalField   nonuniform List<scalar> 
79600
(
-9.024e-06
9.02331e-06
-9.52708e-06
5.02055e-07
-7.79818e-06
-1.72928e-06
-6.08398e-06
-1.71447e-06
-4.7882e-06
-1.29536e-06
-3.87611e-06
-9.12914e-07
-3.23968e-06
-6.37329e-07
-2.78851e-06
-4.51588e-07
-2.46267e-06
-3.27271e-07
-2.22141e-06
-2.42694e-07
-2.03897e-06
-1.83886e-07
-1.89847e-06
-1.41929e-07
-1.78869e-06
-1.11215e-07
-1.70195e-06
-8.81784e-08
-1.63288e-06
-7.05051e-08
-1.57765e-06
-5.66633e-08
-1.53347e-06
-4.5619e-08
-1.49826e-06
-3.66503e-08
-1.47044e-06
-2.92542e-08
-1.44881e-06
-2.30652e-08
-1.43243e-06
-1.7814e-08
-1.42056e-06
-1.33067e-08
-1.4126e-06
-9.38915e-09
-1.40809e-06
-5.94824e-09
-1.40664e-06
-2.88115e-09
-1.40797e-06
-1.06552e-10
-1.41183e-06
2.42664e-09
-1.41813e-06
4.86147e-09
-1.42653e-06
6.96826e-09
-1.43676e-06
8.79743e-09
-1.44868e-06
1.04782e-08
-1.46218e-06
1.20623e-08
-1.47717e-06
1.35556e-08
-1.49358e-06
1.49834e-08
-1.51138e-06
1.63571e-08
-1.53051e-06
1.76968e-08
-1.55095e-06
1.90099e-08
-1.5727e-06
2.03057e-08
-1.59573e-06
2.16013e-08
-1.62006e-06
2.28936e-08
-1.64569e-06
2.41958e-08
-1.67264e-06
2.55085e-08
-1.70092e-06
2.68446e-08
-1.73057e-06
2.82115e-08
-1.76161e-06
2.96038e-08
-1.79408e-06
3.10347e-08
-1.82803e-06
3.25123e-08
-1.8635e-06
3.4036e-08
-1.90056e-06
3.56172e-08
-1.93925e-06
3.7259e-08
-1.97966e-06
3.89704e-08
-2.02185e-06
4.07491e-08
-2.0659e-06
4.26104e-08
-2.1119e-06
4.45622e-08
-2.15994e-06
4.66066e-08
-2.21013e-06
4.875e-08
-2.26258e-06
5.10055e-08
-2.31739e-06
5.3376e-08
-2.37471e-06
5.58753e-08
-2.43466e-06
5.8513e-08
-2.4974e-06
6.12991e-08
-2.56309e-06
6.4247e-08
-2.6319e-06
6.73731e-08
-2.70403e-06
7.06829e-08
-2.77968e-06
7.42045e-08
-2.85906e-06
7.79429e-08
-2.94243e-06
8.19258e-08
-3.03004e-06
8.6164e-08
-3.12217e-06
9.06875e-08
-3.21912e-06
9.55079e-08
-3.32123e-06
1.00656e-07
-3.42883e-06
1.06159e-07
-3.54233e-06
1.12049e-07
-3.66213e-06
1.18356e-07
-3.78869e-06
1.25115e-07
-3.92251e-06
1.32364e-07
-4.0641e-06
1.40149e-07
-4.21407e-06
1.48517e-07
-4.37304e-06
1.57519e-07
-4.5417e-06
1.67204e-07
-4.72078e-06
1.77632e-07
-4.91111e-06
1.88874e-07
-5.11357e-06
2.01006e-07
-5.32913e-06
2.14101e-07
-5.55884e-06
2.28262e-07
-5.80388e-06
2.43582e-07
-6.06557e-06
2.60227e-07
-6.34532e-06
2.78287e-07
-6.64479e-06
2.98012e-07
-6.96578e-06
3.19524e-07
-7.3104e-06
3.43152e-07
-7.68103e-06
3.69173e-07
-8.08047e-06
3.97968e-07
-8.51197e-06
4.30028e-07
-8.9793e-06
4.65857e-07
-9.48671e-06
5.05945e-07
-1.00376e-05
5.51905e-07
-1.06383e-05
6.01633e-07
-1.1293e-05
6.54662e-07
-1.20023e-05
7.08051e-07
-1.27598e-05
7.5647e-07
-1.35507e-05
7.8952e-07
-1.4348e-05
7.95731e-07
-1.51113e-05
7.60302e-07
-1.57893e-05
6.74698e-07
-1.63301e-05
5.35495e-07
-1.66883e-05
3.52477e-07
-1.68341e-05
1.37481e-07
-1.6758e-05
-8.48705e-08
-1.64437e-05
-3.24061e-07
-1.59029e-05
-5.53576e-07
-1.51515e-05
-7.65313e-07
-1.42215e-05
-9.44271e-07
-1.31568e-05
-1.07856e-06
-1.20085e-05
-1.16123e-06
-1.08302e-05
-1.19011e-06
-9.6756e-06
-1.16736e-06
-8.59182e-06
-1.09443e-06
-7.626e-06
-9.76159e-07
-6.81727e-06
-8.18128e-07
-6.1956e-06
-6.2955e-07
-5.78048e-06
-4.21904e-07
-5.57492e-06
-2.09255e-07
-5.56433e-06
-1.37853e-08
-5.79398e-06
2.26191e-07
-6.23105e-06
4.32762e-07
-6.82023e-06
5.84891e-07
-7.4937e-06
6.69583e-07
-8.19544e-06
6.97023e-07
-8.89e-06
6.89817e-07
-9.56697e-06
6.72964e-07
-1.02441e-05
6.71216e-07
-1.09511e-05
7.01361e-07
-1.17237e-05
7.64873e-07
-1.25797e-05
8.49405e-07
-1.35194e-05
9.31614e-07
-1.45174e-05
9.89397e-07
-1.55343e-05
1.00837e-06
-1.65257e-05
9.83511e-07
-1.7452e-05
9.20157e-07
-1.82867e-05
8.27714e-07
-1.90107e-05
7.18497e-07
-1.96169e-05
6.0311e-07
-2.01093e-05
4.89632e-07
-2.04966e-05
3.84611e-07
-2.07917e-05
2.93647e-07
-2.10126e-05
2.19821e-07
-2.11792e-05
1.65473e-07
-2.13116e-05
1.31175e-07
-2.14303e-05
1.18941e-07
-2.15585e-05
1.2832e-07
-2.17172e-05
1.59729e-07
-2.19285e-05
2.11679e-07
-2.22106e-05
2.8328e-07
-2.25845e-05
3.73484e-07
-2.30664e-05
4.82203e-07
-2.36727e-05
6.06478e-07
-2.44172e-05
7.4441e-07
-2.53128e-05
8.94269e-07
-2.63661e-05
1.05334e-06
-2.75862e-05
1.21879e-06
-2.8975e-05
1.38772e-06
-3.05338e-05
1.5578e-06
-3.22589e-05
1.72591e-06
-3.41474e-05
1.88852e-06
-3.61929e-05
2.04368e-06
-3.83837e-05
2.19065e-06
-4.0709e-05
2.32577e-06
-4.31559e-05
2.44799e-06
-4.57131e-05
2.55553e-06
-4.83634e-05
2.6493e-06
-5.10924e-05
2.7286e-06
-5.38848e-05
2.79179e-06
-5.67251e-05
2.84014e-06
-5.95983e-05
2.87289e-06
-6.2488e-05
2.88995e-06
-6.53787e-05
2.8906e-06
-6.82534e-05
2.87432e-06
-7.10928e-05
2.83878e-06
-7.38745e-05
2.7816e-06
-7.65717e-05
2.69677e-06
-7.91492e-05
2.57676e-06
-8.15605e-05
2.41253e-06
-8.37497e-05
2.18923e-06
-8.5639e-05
1.88889e-06
-8.71268e-05
1.4885e-06
-8.80944e-05
9.66938e-07
-8.83491e-05
2.55251e-07
-8.77177e-05
-6.32601e-07
-8.59798e-05
-1.73784e-06
-8.34967e-05
-2.4825e-06
-7.72546e-05
-6.24153e-06
-7.0763e-05
-6.49134e-06
-6.03632e-05
-1.04001e-05
-4.73192e-05
-1.30451e-05
-3.12847e-05
-1.60355e-05
-1.39056e-05
-1.73806e-05
1.40239e-06
-1.53089e-05
6.86271e-06
-5.46021e-06
6.86268e-06
-7.30368e-06
1.6326e-05
-9.98575e-06
3.18384e-06
-9.87797e-06
-1.83804e-06
-8.98259e-06
-2.61162e-06
-8.01894e-06
-2.25951e-06
-7.17856e-06
-1.75445e-06
-6.48613e-06
-1.329e-06
-5.92754e-06
-1.01043e-06
-5.47809e-06
-7.77971e-07
-5.11443e-06
-6.07614e-07
-4.81843e-06
-4.8115e-07
-4.57597e-06
-3.85639e-07
-4.37625e-06
-3.12191e-07
-4.21097e-06
-2.54716e-07
-4.07374e-06
-2.08993e-07
-3.95961e-06
-1.72051e-07
-3.86471e-06
-1.41779e-07
-3.78599e-06
-1.16633e-07
-3.72099e-06
-9.55017e-08
-3.66779e-06
-7.75316e-08
-3.62477e-06
-6.20859e-08
-3.59066e-06
-4.86734e-08
-3.56439e-06
-3.69192e-08
-3.54508e-06
-2.65167e-08
-3.53199e-06
-1.72257e-08
-3.52452e-06
-8.832e-09
-3.52219e-06
-1.15703e-09
-3.52458e-06
5.98943e-09
-3.53137e-06
1.25043e-08
-3.54221e-06
1.8383e-08
-3.55677e-06
2.37852e-08
-3.57478e-06
2.88102e-08
-3.59602e-06
3.35347e-08
-3.6203e-06
3.80157e-08
-3.64751e-06
4.2308e-08
-3.67753e-06
4.64552e-08
-3.71027e-06
5.04944e-08
-3.74568e-06
5.44608e-08
-3.78372e-06
5.83772e-08
-3.82435e-06
6.227e-08
-3.86757e-06
6.61552e-08
-3.91337e-06
7.0059e-08
-3.96178e-06
7.39953e-08
-4.01282e-06
7.79868e-08
-4.06652e-06
8.2049e-08
-4.12294e-06
8.61958e-08
-4.18213e-06
9.04443e-08
-4.24417e-06
9.48128e-08
-4.30912e-06
9.93164e-08
-4.3771e-06
1.03975e-07
-4.4482e-06
1.08806e-07
-4.52253e-06
1.13824e-07
-4.60022e-06
1.19045e-07
-4.68142e-06
1.24494e-07
-4.76627e-06
1.30196e-07
-4.85494e-06
1.36159e-07
-4.94761e-06
1.42419e-07
-5.04449e-06
1.4899e-07
-5.14578e-06
1.55904e-07
-5.25171e-06
1.63187e-07
-5.36255e-06
1.70876e-07
-5.47857e-06
1.78998e-07
-5.60005e-06
1.8759e-07
-5.72732e-06
1.96698e-07
-5.86074e-06
2.06358e-07
-6.00068e-06
2.16621e-07
-6.14756e-06
2.27534e-07
-6.30181e-06
2.39152e-07
-6.46392e-06
2.51536e-07
-6.63443e-06
2.64749e-07
-6.81391e-06
2.78867e-07
-7.00298e-06
2.9396e-07
-7.20232e-06
3.10125e-07
-7.41269e-06
3.27452e-07
-7.63489e-06
3.46048e-07
-7.86982e-06
3.66018e-07
-8.11844e-06
3.87498e-07
-8.38183e-06
4.10642e-07
-8.66119e-06
4.35603e-07
-8.9578e-06
4.62539e-07
-9.27309e-06
4.91648e-07
-9.60864e-06
5.23149e-07
-9.96625e-06
5.57339e-07
-1.03479e-05
5.94435e-07
-1.07557e-05
6.34829e-07
-1.11922e-05
6.78838e-07
-1.16603e-05
7.2698e-07
-1.21631e-05
7.79783e-07
-1.27042e-05
8.37925e-07
-1.32883e-05
9.02286e-07
-1.39203e-05
9.73889e-07
-1.46066e-05
1.05414e-06
-1.53548e-05
1.14494e-06
-1.61747e-05
1.24855e-06
-1.70782e-05
1.36809e-06
-1.8079e-05
1.50781e-06
-1.91957e-05
1.66866e-06
-2.04443e-05
1.85058e-06
-2.18377e-05
2.04743e-06
-2.33741e-05
2.24266e-06
-2.50299e-05
2.4086e-06
-2.67496e-05
2.50577e-06
-2.84517e-05
2.49081e-06
-3.00295e-05
2.33004e-06
-3.13745e-05
2.00815e-06
-3.23891e-05
1.53809e-06
-3.30066e-05
9.54634e-07
-3.31818e-05
2.95373e-07
-3.28941e-05
-3.90145e-07
-3.21854e-05
-1.05213e-06
-3.11185e-05
-1.64e-06
-2.97835e-05
-2.118e-06
-2.82753e-05
-2.46824e-06
-2.66798e-05
-2.68655e-06
-2.50713e-05
-2.78003e-06
-2.35127e-05
-2.7591e-06
-2.20547e-05
-2.63322e-06
-2.07415e-05
-2.41243e-06
-1.9613e-05
-2.10778e-06
-1.87042e-05
-1.73076e-06
-1.80422e-05
-1.29457e-06
-1.7652e-05
-8.13836e-07
-1.7581e-05
-2.80631e-07
-1.79228e-05
3.28791e-07
-1.8682e-05
9.83925e-07
-1.98453e-05
1.59479e-06
-2.13778e-05
2.11481e-06
-2.32352e-05
2.5245e-06
-2.5368e-05
2.82494e-06
-2.77187e-05
3.03584e-06
-3.02323e-05
3.18127e-06
-3.28508e-05
3.28186e-06
-3.55069e-05
3.3505e-06
-3.81364e-05
3.38815e-06
-4.06802e-05
3.38688e-06
-4.30928e-05
3.3382e-06
-4.5341e-05
3.23287e-06
-4.7405e-05
3.06774e-06
-4.92708e-05
2.84591e-06
-5.09314e-05
2.5783e-06
-5.23857e-05
2.27922e-06
-5.36356e-05
1.96743e-06
-5.46915e-05
1.65831e-06
-5.55697e-05
1.36657e-06
-5.62899e-05
1.10448e-06
-5.68772e-05
8.81971e-07
-5.73604e-05
7.0389e-07
-5.77696e-05
5.74097e-07
-5.8132e-05
4.94615e-07
-5.8478e-05
4.64465e-07
-5.88341e-05
4.83288e-07
-5.92237e-05
5.49099e-07
-5.96722e-05
6.59166e-07
-6.01991e-05
8.10079e-07
-6.08222e-05
9.9721e-07
-6.15563e-05
1.21534e-06
-6.24118e-05
1.46189e-06
-6.33968e-05
1.73006e-06
-6.45178e-05
2.01433e-06
-6.5774e-05
2.3095e-06
-6.71655e-05
2.60948e-06
-6.86861e-05
2.90854e-06
-7.03292e-05
3.20056e-06
-7.20839e-05
3.48069e-06
-7.39386e-05
3.74363e-06
-7.58797e-05
3.98549e-06
-7.78924e-05
4.2022e-06
-7.99581e-05
4.392e-06
-8.20614e-05
4.55158e-06
-8.41849e-05
4.67935e-06
-8.63108e-05
4.77556e-06
-8.84229e-05
4.83982e-06
-9.05021e-05
4.87186e-06
-9.25338e-05
4.87153e-06
-9.45007e-05
4.83988e-06
-9.63864e-05
4.77544e-06
-9.81731e-05
4.67784e-06
-9.98433e-05
4.5439e-06
-0.000101375
4.37046e-06
-0.000102744
4.15042e-06
-0.000103922
3.87455e-06
-0.000104877
3.53218e-06
-0.00010557
3.10553e-06
-0.000105953
2.57171e-06
-0.000105958
1.89239e-06
-0.000105467
9.98272e-07
-0.000104326
-1.74643e-07
-0.000102431
-1.63995e-06
-9.95836e-05
-3.48073e-06
-9.55609e-05
-5.75978e-06
-8.96531e-05
-8.38956e-06
-8.32684e-05
-1.26276e-05
-7.52989e-05
-1.44604e-05
-6.52031e-05
-2.04959e-05
-5.25858e-05
-2.56631e-05
-3.82652e-05
-3.03557e-05
-2.29237e-05
-3.27214e-05
-8.56868e-06
-2.96635e-05
1.74672e-06
-1.57775e-05
8.60866e-06
-5.8255e-06
2.21524e-05
-8.84592e-06
6.20435e-06
-9.59509e-06
-1.09043e-06
-9.4178e-06
-2.78946e-06
-8.94439e-06
-2.73175e-06
-8.41636e-06
-2.28103e-06
-7.91711e-06
-1.82827e-06
-7.47186e-06
-1.4558e-06
-7.08553e-06
-1.16537e-06
-6.75348e-06
-9.40745e-07
-6.46957e-06
-7.6615e-07
-6.22732e-06
-6.28966e-07
-6.02077e-06
-5.19829e-07
-5.84469e-06
-4.3188e-07
-5.69466e-06
-3.60111e-07
-5.56695e-06
-3.00843e-07
-5.45847e-06
-2.51336e-07
-5.36665e-06
-2.09538e-07
-5.28935e-06
-1.73889e-07
-5.22477e-06
-1.4319e-07
-5.17142e-06
-1.1652e-07
-5.12804e-06
-9.31381e-08
-5.09356e-06
-7.24766e-08
-5.0671e-06
-5.40634e-08
-5.04788e-06
-3.75263e-08
-5.03525e-06
-2.25467e-08
-5.02864e-06
-8.84732e-09
-5.02752e-06
3.78804e-09
-5.03151e-06
1.54039e-08
-5.04023e-06
2.60225e-08
-5.05341e-06
3.58886e-08
-5.07081e-06
4.51194e-08
-5.09218e-06
5.38224e-08
-5.11734e-06
6.20977e-08
-5.14614e-06
7.00243e-08
-5.17845e-06
7.76836e-08
-5.21417e-06
8.51305e-08
-5.25322e-06
9.24264e-08
-5.29554e-06
9.96152e-08
-5.3411e-06
1.06739e-07
-5.38986e-06
1.13834e-07
-5.44183e-06
1.20947e-07
-5.49702e-06
1.28101e-07
-5.55545e-06
1.35331e-07
-5.61715e-06
1.42669e-07
-5.68218e-06
1.50142e-07
-5.75061e-06
1.57782e-07
-5.8225e-06
1.65619e-07
-5.89795e-06
1.73682e-07
-5.97706e-06
1.82e-07
-6.05994e-06
1.90605e-07
-6.14674e-06
1.99533e-07
-6.23759e-06
2.08809e-07
-6.33265e-06
2.18474e-07
-6.43211e-06
2.28563e-07
-6.53615e-06
2.39117e-07
-6.64499e-06
2.50173e-07
-6.75887e-06
2.61774e-07
-6.87802e-06
2.73969e-07
-7.00273e-06
2.86811e-07
-7.1333e-06
3.0035e-07
-7.27004e-06
3.14653e-07
-7.41331e-06
3.29775e-07
-7.5635e-06
3.45792e-07
-7.72101e-06
3.62782e-07
-7.8863e-06
3.80821e-07
-8.05987e-06
4.00007e-07
-8.24224e-06
4.20433e-07
-8.434e-06
4.42208e-07
-8.6358e-06
4.65451e-07
-8.84832e-06
4.90299e-07
-9.07234e-06
5.16885e-07
-9.30867e-06
5.45365e-07
-9.55825e-06
5.75935e-07
-9.82209e-06
6.08785e-07
-1.01013e-05
6.44093e-07
-1.0397e-05
6.82157e-07
-1.07106e-05
7.23177e-07
-1.10437e-05
7.67556e-07
-1.13978e-05
8.15543e-07
-1.17748e-05
8.67568e-07
-1.21769e-05
9.24094e-07
-1.26062e-05
9.85528e-07
-1.30654e-05
1.05257e-06
-1.35575e-05
1.12584e-06
-1.4086e-05
1.20619e-06
-1.46546e-05
1.29454e-06
-1.52682e-05
1.3922e-06
-1.5932e-05
1.5006e-06
-1.66525e-05
1.62172e-06
-1.74379e-05
1.75814e-06
-1.82981e-05
1.91325e-06
-1.92458e-05
2.09158e-06
-2.02972e-05
2.29869e-06
-2.14712e-05
2.54244e-06
-2.27922e-05
2.82782e-06
-2.42838e-05
3.15838e-06
-2.59617e-05
3.52647e-06
-2.7827e-05
3.90886e-06
-2.98492e-05
4.2608e-06
-3.19635e-05
4.51569e-06
-3.40666e-05
4.59903e-06
-3.60334e-05
4.44313e-06
-3.77331e-05
4.0112e-06
-3.90517e-05
3.30692e-06
-3.99123e-05
2.37625e-06
-4.02821e-05
1.301e-06
-4.01574e-05
1.46221e-07
-3.95782e-05
-9.95071e-07
-3.86449e-05
-2.00714e-06
-3.74797e-05
-2.82331e-06
-3.61947e-05
-3.41943e-06
-3.48761e-05
-3.79856e-06
-3.35905e-05
-3.98096e-06
-3.2388e-05
-3.98851e-06
-3.13087e-05
-3.8418e-06
-3.03894e-05
-3.5546e-06
-2.96666e-05
-3.1371e-06
-2.91813e-05
-2.59477e-06
-2.89819e-05
-1.93019e-06
-2.91281e-05
-1.14571e-06
-2.97281e-05
-2.11245e-07
-3.08643e-05
8.5657e-07
-3.24598e-05
1.92712e-06
-3.43906e-05
2.9165e-06
-3.66019e-05
3.80594e-06
-3.90612e-05
4.57379e-06
-4.17413e-05
5.20174e-06
-4.46023e-05
5.68334e-06
-4.7592e-05
6.02287e-06
-5.06468e-05
6.23218e-06
-5.3695e-05
6.32644e-06
-5.66669e-05
6.32001e-06
-5.95039e-05
6.22134e-06
-6.21551e-05
6.03735e-06
-6.45894e-05
5.77138e-06
-6.6784e-05
5.4275e-06
-6.8732e-05
5.01421e-06
-7.04313e-05
4.54499e-06
-7.18907e-05
4.03717e-06
-7.31218e-05
3.51158e-06
-7.41435e-05
2.98972e-06
-7.49761e-05
2.49105e-06
-7.56444e-05
2.03462e-06
-7.61734e-05
1.63503e-06
-7.6593e-05
1.30149e-06
-7.69301e-05
1.04072e-06
-7.72128e-05
8.55269e-07
-7.74651e-05
7.45984e-07
-7.7711e-05
7.09552e-07
-7.79717e-05
7.4251e-07
-7.82636e-05
8.41394e-07
-7.86048e-05
9.99972e-07
-7.90088e-05
1.21215e-06
-7.94855e-05
1.47149e-06
-8.00409e-05
1.77124e-06
-8.06835e-05
2.10281e-06
-8.1413e-05
2.45935e-06
-8.22311e-05
2.83119e-06
-8.31327e-05
3.2102e-06
-8.41138e-05
3.58897e-06
-8.51658e-05
3.95859e-06
-8.62785e-05
4.31211e-06
-8.74408e-05
4.64186e-06
-8.86399e-05
4.94209e-06
-8.98629e-05
5.20751e-06
-9.10954e-05
5.43451e-06
-9.23236e-05
5.61931e-06
-9.35331e-05
5.76059e-06
-9.47098e-05
5.85702e-06
-9.58419e-05
5.90846e-06
-9.69184e-05
5.91551e-06
-9.79259e-05
5.87976e-06
-9.88553e-05
5.80177e-06
-9.96984e-05
5.68187e-06
-0.000100444
5.52178e-06
-0.000101086
5.31887e-06
-0.000101613
5.07086e-06
-0.000102017
4.77304e-06
-0.000102284
4.41676e-06
-0.000102403
3.99387e-06
-0.000102359
3.48873e-06
-0.000102137
2.88301e-06
-0.000101716
2.15029e-06
-0.000101052
1.22696e-06
-0.000100066
1.28437e-08
-9.874e-05
-1.50133e-06
-9.69658e-05
-3.41427e-06
-9.46372e-05
-5.81007e-06
-9.16258e-05
-8.77231e-06
-8.74931e-05
-1.25217e-05
-8.26176e-05
-1.75029e-05
-7.43523e-05
-2.27266e-05
-6.54991e-05
-2.93485e-05
-5.49186e-05
-3.62437e-05
-4.27934e-05
-4.24805e-05
-2.95018e-05
-4.6014e-05
-1.59452e-05
-4.32203e-05
-3.32436e-06
-2.83989e-05
5.28503e-06
-4.89954e-06
2.70526e-05
-7.82613e-06
9.13036e-06
-8.95001e-06
3.25463e-08
-9.16536e-06
-2.5754e-06
-9.02266e-06
-2.87359e-06
-8.75147e-06
-2.55307e-06
-8.44318e-06
-2.13642e-06
-8.13804e-06
-1.76086e-06
-7.85353e-06
-1.45079e-06
-7.59502e-06
-1.20016e-06
-7.36402e-06
-9.98063e-07
-7.15968e-06
-8.34213e-07
-6.98014e-06
-7.00282e-07
-6.82314e-06
-5.89785e-07
-6.68641e-06
-4.97758e-07
-6.56778e-06
-4.20381e-07
-6.4653e-06
-3.54725e-07
-6.37723e-06
-2.98518e-07
-6.30204e-06
-2.49986e-07
-6.2384e-06
-2.0774e-07
-6.18516e-06
-1.70673e-07
-6.1413e-06
-1.37902e-07
-6.10597e-06
-1.08714e-07
-6.07841e-06
-8.25298e-08
-6.05798e-06
-5.88702e-08
-6.04409e-06
-3.73478e-08
-6.03622e-06
-1.76209e-08
-6.0339e-06
5.56026e-10
-6.03671e-06
1.731e-08
-6.04417e-06
3.2572e-08
-6.05611e-06
4.6921e-08
-6.07236e-06
6.04559e-08
-6.09274e-06
7.3298e-08
-6.11711e-06
8.556e-08
-6.14535e-06
9.73491e-08
-6.17733e-06
1.08756e-07
-6.21298e-06
1.19868e-07
-6.25221e-06
1.30753e-07
-6.29499e-06
1.41481e-07
-6.34127e-06
1.52111e-07
-6.39104e-06
1.62698e-07
-6.4443e-06
1.73293e-07
-6.50105e-06
1.83943e-07
-6.56133e-06
1.94695e-07
-6.62517e-06
2.05597e-07
-6.69262e-06
2.16688e-07
-6.76377e-06
2.28016e-07
-6.83868e-06
2.39621e-07
-6.91746e-06
2.51546e-07
-7.00021e-06
2.63839e-07
-7.08706e-06
2.76543e-07
-7.17814e-06
2.89704e-07
-7.27362e-06
3.03379e-07
-7.37367e-06
3.17608e-07
-7.47847e-06
3.32455e-07
-7.58824e-06
3.4797e-07
-7.70319e-06
3.64215e-07
-7.8236e-06
3.81263e-07
-7.94971e-06
3.99168e-07
-8.08183e-06
4.18018e-07
-8.22028e-06
4.37889e-07
-8.36541e-06
4.58868e-07
-8.51761e-06
4.81052e-07
-8.67727e-06
5.04544e-07
-8.84486e-06
5.29455e-07
-9.02088e-06
5.55918e-07
-9.20584e-06
5.84057e-07
-9.40035e-06
6.14019e-07
-9.60503e-06
6.45976e-07
-9.82059e-06
6.80089e-07
-1.00478e-05
7.16591e-07
-1.02875e-05
7.55672e-07
-1.05406e-05
7.97562e-07
-1.08082e-05
8.42548e-07
-1.10912e-05
8.90898e-07
-1.13911e-05
9.43031e-07
-1.1709e-05
9.99217e-07
-1.20467e-05
1.05994e-06
-1.24057e-05
1.12562e-06
-1.2788e-05
1.1969e-06
-1.31957e-05
1.2743e-06
-1.3631e-05
1.35856e-06
-1.4097e-05
1.45051e-06
-1.45964e-05
1.55108e-06
-1.51329e-05
1.66141e-06
-1.57106e-05
1.78293e-06
-1.63342e-05
1.91729e-06
-1.70095e-05
2.06652e-06
-1.77432e-05
2.23336e-06
-1.85436e-05
2.42121e-06
-1.94211e-05
2.6347e-06
-2.03888e-05
2.87998e-06
-2.14633e-05
3.16505e-06
-2.26638e-05
3.49962e-06
-2.4016e-05
3.89383e-06
-2.5544e-05
4.35569e-06
-2.72704e-05
4.88172e-06
-2.91989e-05
5.45132e-06
-3.13096e-05
6.01384e-06
-3.35455e-05
6.48768e-06
-3.58103e-05
6.76936e-06
-3.79815e-05
6.75289e-06
-3.99232e-05
6.36276e-06
-4.15145e-05
5.57574e-06
-4.26669e-05
4.43011e-06
-4.33415e-05
3.02192e-06
-4.35582e-05
1.48739e-06
-4.33721e-05
-6.69329e-08
-4.28861e-05
-1.50575e-06
-4.22217e-05
-2.69124e-06
-4.14865e-05
-3.57461e-06
-4.07579e-05
-4.15841e-06
-4.00935e-05
-4.4715e-06
-3.95324e-05
-4.54674e-06
-3.91102e-05
-4.41481e-06
-3.8859e-05
-4.09436e-06
-3.88179e-05
-3.59602e-06
-3.9032e-05
-2.92273e-06
-3.95542e-05
-2.07223e-06
-4.04435e-05
-1.03869e-06
-4.17635e-05
1.75621e-07
-4.34435e-05
1.47118e-06
-4.53229e-05
2.7401e-06
-4.73492e-05
3.95593e-06
-4.95459e-05
5.114e-06
-5.19137e-05
6.17358e-06
-5.44335e-05
7.09289e-06
-5.70733e-05
7.84054e-06
-5.97898e-05
8.39891e-06
-6.25323e-05
8.76374e-06
-6.52443e-05
8.94185e-06
-6.78652e-05
8.94707e-06
-7.03406e-05
8.79475e-06
-7.26215e-05
8.50259e-06
-7.46708e-05
8.08808e-06
-7.64669e-05
7.56759e-06
-7.79969e-05
6.96007e-06
-7.92662e-05
6.28553e-06
-8.02862e-05
5.56765e-06
-8.108e-05
4.83232e-06
-8.16737e-05
4.10676e-06
-8.20998e-05
3.4156e-06
-8.23877e-05
2.78058e-06
-8.25712e-05
2.21876e-06
-8.26795e-05
1.74337e-06
-8.2741e-05
1.36274e-06
-8.27801e-05
1.07901e-06
-8.2817e-05
8.91984e-07
-8.28694e-05
7.97036e-07
-8.29486e-05
7.87814e-07
-8.3064e-05
8.57115e-07
-8.32222e-05
9.98191e-07
-8.34289e-05
1.20445e-06
-8.36869e-05
1.46752e-06
-8.39969e-05
1.77934e-06
-8.4358e-05
2.13158e-06
-8.47695e-05
2.51354e-06
-8.52282e-05
2.91596e-06
-8.57291e-05
3.32976e-06
-8.62641e-05
3.74543e-06
-8.6829e-05
4.15208e-06
-8.74128e-05
4.54124e-06
-8.80075e-05
4.90504e-06
-8.86017e-05
5.23574e-06
-8.91868e-05
5.52697e-06
-8.97521e-05
5.7731e-06
-9.02887e-05
5.97061e-06
-9.07867e-05
6.11771e-06
-9.1239e-05
6.21295e-06
-9.16371e-05
6.2561e-06
-9.19759e-05
6.24837e-06
-9.22514e-05
6.19092e-06
-9.24591e-05
6.08692e-06
-9.2597e-05
5.93903e-06
-9.26633e-05
5.74851e-06
-9.26592e-05
5.51693e-06
-9.25839e-05
5.24368e-06
-9.24374e-05
4.92528e-06
-9.22217e-05
4.55644e-06
-9.19341e-05
4.13046e-06
-9.15764e-05
3.63599e-06
-9.1147e-05
3.05827e-06
-9.06426e-05
2.37959e-06
-9.0058e-05
1.56558e-06
-8.93604e-05
5.29996e-07
-8.85859e-05
-7.61229e-07
-8.76898e-05
-2.39671e-06
-8.65733e-05
-4.53139e-06
-8.50784e-05
-7.30461e-06
-8.30041e-05
-1.08465e-05
-8.00769e-05
-1.54505e-05
-7.63602e-05
-2.12208e-05
-7.11343e-05
-2.79518e-05
-6.44298e-05
-3.60523e-05
-5.59842e-05
-4.4689e-05
-4.57259e-05
-5.27388e-05
-3.3813e-05
-5.79272e-05
-2.07425e-05
-5.62918e-05
-8.1306e-06
-4.10114e-05
-2.84662e-06
-4.25872e-06
3.13115e-05
-7.02059e-06
1.18929e-05
-8.29091e-06
1.30167e-06
-8.71922e-06
-2.14605e-06
-8.78132e-06
-2.81241e-06
-8.68501e-06
-2.64903e-06
-8.52131e-06
-2.29884e-06
-8.33303e-06
-1.94889e-06
-8.14133e-06
-1.64322e-06
-7.95602e-06
-1.38621e-06
-7.78251e-06
-1.17231e-06
-7.62328e-06
-9.94174e-07
-7.47916e-06
-8.45138e-07
-7.35001e-06
-7.19666e-07
-7.23522e-06
-6.13288e-07
-7.13389e-06
-5.22445e-07
-7.04506e-06
-4.44287e-07
-6.96777e-06
-3.76552e-07
-6.90106e-06
-3.17425e-07
-6.84409e-06
-2.65448e-07
-6.79606e-06
-2.19437e-07
-6.75626e-06
-1.78434e-07
-6.72406e-06
-1.41652e-07
-6.69889e-06
-1.08435e-07
-6.68024e-06
-7.82493e-08
-6.66768e-06
-5.06475e-08
-6.66078e-06
-2.5256e-08
-6.65915e-06
-1.80362e-09
-6.66238e-06
1.9804e-08
-6.67001e-06
3.947e-08
-6.68189e-06
5.80596e-08
-6.69788e-06
7.57161e-08
-6.71789e-06
9.25679e-08
-6.74181e-06
1.08741e-07
-6.76954e-06
1.24353e-07
-6.80103e-06
1.39507e-07
-6.8362e-06
1.54301e-07
-6.875e-06
1.68819e-07
-6.9174e-06
1.83146e-07
-6.96338e-06
1.9735e-07
-7.01292e-06
2.1151e-07
-7.06604e-06
2.25674e-07
-7.12276e-06
2.39927e-07
-7.18311e-06
2.54309e-07
-7.24714e-06
2.68883e-07
-7.3149e-06
2.83714e-07
-7.38647e-06
2.98851e-07
-7.46194e-06
3.14353e-07
-7.54141e-06
3.30282e-07
-7.625e-06
3.4669e-07
-7.71283e-06
3.6364e-07
-7.80506e-06
3.81193e-07
-7.90184e-06
3.99421e-07
-8.00336e-06
4.18389e-07
-8.10981e-06
4.38164e-07
-8.2214e-06
4.58828e-07
-8.33839e-06
4.80459e-07
-8.46101e-06
5.03144e-07
-8.58956e-06
5.26978e-07
-8.72434e-06
5.52061e-07
-8.86569e-06
5.78495e-07
-9.01397e-06
6.06409e-07
-9.16958e-06
6.35917e-07
-9.33294e-06
6.67168e-07
-9.50454e-06
7.0031e-07
-9.68487e-06
7.3551e-07
-9.87451e-06
7.72953e-07
-1.0074e-05
8.12814e-07
-1.02842e-05
8.55357e-07
-1.05056e-05
9.00805e-07
-1.07392e-05
9.49402e-07
-1.09857e-05
1.00148e-06
-1.12463e-05
1.05735e-06
-1.15218e-05
1.11736e-06
-1.18137e-05
1.18197e-06
-1.2123e-05
1.2516e-06
-1.24513e-05
1.32679e-06
-1.28003e-05
1.40815e-06
-1.31717e-05
1.49628e-06
-1.35675e-05
1.59198e-06
-1.399e-05
1.69609e-06
-1.44419e-05
1.80969e-06
-1.4926e-05
1.93387e-06
-1.54458e-05
2.0701e-06
-1.60051e-05
2.21999e-06
-1.66085e-05
2.38555e-06
-1.72612e-05
2.56925e-06
-1.79697e-05
2.77421e-06
-1.87414e-05
3.00433e-06
-1.95858e-05
3.26488e-06
-2.05146e-05
3.56267e-06
-2.15421e-05
3.90664e-06
-2.26868e-05
4.30792e-06
-2.3969e-05
4.78136e-06
-2.54132e-05
5.33758e-06
-2.70424e-05
5.98284e-06
-2.887e-05
6.70624e-06
-3.08911e-05
7.46815e-06
-3.30722e-05
8.18832e-06
-3.53452e-05
8.74982e-06
-3.76102e-05
9.0162e-06
-3.97455e-05
8.86437e-06
-4.16289e-05
8.2194e-06
-4.31645e-05
7.07963e-06
-4.42955e-05
5.5273e-06
-4.50205e-05
3.71384e-06
-4.53918e-05
1.82956e-06
-4.5505e-05
1.99675e-08
-4.54677e-05
-1.56284e-06
-4.53789e-05
-2.79504e-06
-4.53123e-05
-3.65202e-06
-4.53179e-05
-4.16026e-06
-4.54313e-05
-4.36177e-06
-4.56823e-05
-4.2983e-06
-4.60982e-05
-3.99924e-06
-4.67083e-05
-3.48374e-06
-4.75438e-05
-2.76124e-06
-4.86269e-05
-1.83847e-06
-4.99754e-05
-7.22444e-07
-5.15647e-05
5.53539e-07
-5.32769e-05
1.89046e-06
-5.50373e-05
3.2331e-06
-5.68816e-05
4.58733e-06
-5.8842e-05
5.91913e-06
-6.09052e-05
7.17957e-06
-6.3045e-05
8.31546e-06
-6.52318e-05
9.28118e-06
-6.74313e-05
1.00408e-05
-6.96037e-05
1.05718e-05
-7.17053e-05
1.08664e-05
-7.36905e-05
1.09289e-05
-7.55143e-05
1.07735e-05
-7.71354e-05
1.04198e-05
-7.85206e-05
9.8925e-06
-7.96481e-05
9.21943e-06
-8.05091e-05
8.43095e-06
-8.11056e-05
7.55914e-06
-8.14555e-05
6.63731e-06
-8.15851e-05
5.69991e-06
-8.15312e-05
4.78021e-06
-8.13343e-05
3.91182e-06
-8.10388e-05
3.12078e-06
-8.06842e-05
2.42711e-06
-8.0309e-05
1.84353e-06
-7.99448e-05
1.37887e-06
-7.96192e-05
1.03518e-06
-7.93492e-05
8.08023e-07
-7.91466e-05
6.88329e-07
-7.90171e-05
6.64968e-07
-7.89576e-05
7.25166e-07
-7.89627e-05
8.6064e-07
-7.90261e-05
1.06092e-06
-7.91423e-05
1.31829e-06
-7.93027e-05
1.62503e-06
-7.94985e-05
1.97264e-06
-7.97227e-05
2.35249e-06
-7.99663e-05
2.75496e-06
-8.02218e-05
3.17005e-06
-8.04818e-05
3.58843e-06
-8.07371e-05
3.99931e-06
-8.0981e-05
4.3939e-06
-8.12033e-05
4.76307e-06
-8.13983e-05
5.09893e-06
-8.15573e-05
5.39454e-06
-8.16748e-05
5.64364e-06
-8.17435e-05
5.84175e-06
-8.17593e-05
5.98672e-06
-8.17182e-05
6.07669e-06
-8.16183e-05
6.1124e-06
-8.14567e-05
6.09419e-06
-8.12347e-05
6.02512e-06
-8.09523e-05
5.90802e-06
-8.06121e-05
5.74715e-06
-8.02188e-05
5.54554e-06
-7.97754e-05
5.30669e-06
-7.92892e-05
5.03163e-06
-7.87668e-05
4.72059e-06
-7.8213e-05
4.37166e-06
-7.76365e-05
3.97985e-06
-7.70437e-05
3.53857e-06
-7.64455e-05
3.03693e-06
-7.5849e-05
2.46191e-06
-7.52632e-05
1.79441e-06
-7.46923e-05
9.94228e-07
-7.41521e-05
-8.53536e-09
-7.36595e-05
-1.25406e-06
-7.31812e-05
-2.87444e-06
-7.2674e-05
-5.03894e-06
-7.20551e-05
-7.92343e-06
-7.11708e-05
-1.17307e-05
-6.98468e-05
-1.67749e-05
-6.78607e-05
-2.32069e-05
-6.47397e-05
-3.10725e-05
-6.0326e-05
-4.04648e-05
-5.419e-05
-5.08257e-05
-4.60195e-05
-6.09098e-05
-3.56779e-05
-6.82684e-05
-2.34508e-05
-6.85185e-05
-1.05629e-05
-5.38986e-05
-1.34103e-05
-3.78083e-06
3.50933e-05
-6.41456e-06
1.45266e-05
-7.70559e-06
2.59266e-06
-8.24867e-06
-1.60454e-06
-8.43017e-06
-2.63109e-06
-8.44681e-06
-2.63336e-06
-8.38458e-06
-2.3621e-06
-8.28281e-06
-2.05024e-06
-8.16436e-06
-1.76222e-06
-8.03999e-06
-1.51115e-06
-7.91669e-06
-1.29617e-06
-7.79863e-06
-1.11279e-06
-7.68821e-06
-9.56126e-07
-7.58665e-06
-8.21783e-07
-7.49446e-06
-7.06037e-07
-7.4117e-06
-6.05767e-07
-7.33815e-06
-5.18405e-07
-7.27342e-06
-4.41835e-07
-7.21709e-06
-3.74318e-07
-7.16868e-06
-3.14424e-07
-7.12771e-06
-2.6097e-07
-7.09373e-06
-2.12975e-07
-7.06632e-06
-1.69618e-07
-7.04509e-06
-1.30224e-07
-7.02969e-06
-9.42164e-08
-7.01978e-06
-6.11157e-08
-7.01507e-06
-3.0529e-08
-7.01525e-06
-2.17657e-09
-7.01993e-06
2.39151e-08
-7.02872e-06
4.77062e-08
-7.04148e-06
7.02571e-08
-7.05811e-06
9.17864e-08
-7.07855e-06
1.12443e-07
-7.10273e-06
1.32358e-07
-7.13059e-06
1.51654e-07
-7.16208e-06
1.70441e-07
-7.19717e-06
1.88827e-07
-7.23583e-06
2.06918e-07
-7.27804e-06
2.24791e-07
-7.32379e-06
2.42539e-07
-7.37308e-06
2.60242e-07
-7.42595e-06
2.77977e-07
-7.4824e-06
2.95818e-07
-7.54249e-06
3.13838e-07
-7.60628e-06
3.32106e-07
-7.67382e-06
3.50692e-07
-7.7452e-06
3.6967e-07
-7.82052e-06
3.89107e-07
-7.89987e-06
4.0907e-07
-7.98337e-06
4.29635e-07
-8.07118e-06
4.50878e-07
-8.16342e-06
4.72878e-07
-8.26028e-06
4.95715e-07
-8.36193e-06
5.19473e-07
-8.46858e-06
5.44246e-07
-8.58044e-06
5.70127e-07
-8.69776e-06
5.97211e-07
-8.8208e-06
6.25618e-07
-8.94985e-06
6.5546e-07
-9.08521e-06
6.86855e-07
-9.22722e-06
7.19947e-07
-9.37626e-06
7.54882e-07
-9.53274e-06
7.91823e-07
-9.69707e-06
8.30935e-07
-9.86975e-06
8.72418e-07
-1.00513e-05
9.16473e-07
-1.02423e-05
9.63359e-07
-1.04433e-05
1.01328e-06
-1.0655e-05
1.06652e-06
-1.08782e-05
1.12343e-06
-1.11137e-05
1.18435e-06
-1.13624e-05
1.2496e-06
-1.16253e-05
1.31964e-06
-1.19034e-05
1.39494e-06
-1.21981e-05
1.47603e-06
-1.25105e-05
1.56348e-06
-1.28423e-05
1.65798e-06
-1.3195e-05
1.76027e-06
-1.35705e-05
1.87123e-06
-1.39709e-05
1.9918e-06
-1.43986e-05
2.1232e-06
-1.48562e-05
2.2667e-06
-1.53468e-05
2.42385e-06
-1.58737e-05
2.59649e-06
-1.64411e-05
2.78682e-06
-1.70537e-05
2.99751e-06
-1.77169e-05
3.23186e-06
-1.84372e-05
3.49392e-06
-1.92225e-05
3.78904e-06
-2.00822e-05
4.12407e-06
-2.10281e-05
4.50798e-06
-2.20746e-05
4.95241e-06
-2.32374e-05
5.4715e-06
-2.45381e-05
6.08159e-06
-2.59956e-05
6.7951e-06
-2.76289e-05
7.61478e-06
-2.94453e-05
8.52083e-06
-3.14379e-05
9.45499e-06
-3.35719e-05
1.03129e-05
-3.57855e-05
1.09491e-05
-3.79914e-05
1.12014e-05
-4.00882e-05
1.09342e-05
-4.19779e-05
1.00774e-05
-4.35881e-05
8.65551e-06
-4.48865e-05
6.79193e-06
-4.58902e-05
4.68376e-06
-4.66521e-05
2.56272e-06
-4.72651e-05
6.09264e-07
-4.78104e-05
-1.03411e-06
-4.83492e-05
-2.26681e-06
-4.89344e-05
-3.07304e-06
-4.96016e-05
-3.49692e-06
-5.03773e-05
-3.5889e-06
-5.12806e-05
-3.39491e-06
-5.233e-05
-2.95078e-06
-5.35357e-05
-2.27743e-06
-5.48984e-05
-1.39763e-06
-5.64005e-05
-3.34198e-07
-5.79944e-05
8.73375e-07
-5.95983e-05
2.15806e-06
-6.12074e-05
3.50057e-06
-6.28653e-05
4.89351e-06
-6.45734e-05
6.29798e-06
-6.63121e-05
7.66123e-06
-6.80578e-05
8.92698e-06
-6.97793e-05
1.00409e-05
-7.14481e-05
1.09529e-05
-7.30314e-05
1.16261e-05
-7.44939e-05
1.20377e-05
-7.58011e-05
1.21778e-05
-7.69175e-05
1.20506e-05
-7.78125e-05
1.16723e-05
-7.84575e-05
1.10694e-05
-7.88338e-05
1.02741e-05
-7.89338e-05
9.32558e-06
-7.87632e-05
8.2654e-06
-7.83388e-05
7.13954e-06
-7.76919e-05
5.99353e-06
-7.68637e-05
4.87492e-06
-7.59044e-05
3.82497e-06
-7.48716e-05
2.88133e-06
-7.38233e-05
2.07507e-06
-7.28159e-05
1.42164e-06
-7.18924e-05
9.20092e-07
-7.10845e-05
5.70744e-07
-7.04143e-05
3.62733e-07
-6.98879e-05
2.80053e-07
-6.95014e-05
3.01008e-07
-6.92463e-05
4.06232e-07
-6.91039e-05
5.80384e-07
-6.90579e-05
8.11028e-07
-6.90859e-05
1.08648e-06
-6.9171e-05
1.39978e-06
-6.92949e-05
1.74534e-06
-6.94402e-05
2.1163e-06
-6.95939e-05
2.50356e-06
-6.97422e-05
2.90099e-06
-6.98728e-05
3.29993e-06
-6.99776e-05
3.69053e-06
-7.00445e-05
4.06532e-06
-7.00679e-05
4.4155e-06
-7.00384e-05
4.7336e-06
-6.99518e-05
5.01164e-06
-6.98026e-05
5.24427e-06
-6.95875e-05
5.42682e-06
-6.93021e-05
5.55681e-06
-6.89471e-05
5.6316e-06
-6.85211e-05
5.65187e-06
-6.80283e-05
5.61816e-06
-6.74675e-05
5.53413e-06
-6.68457e-05
5.40266e-06
-6.61656e-05
5.22883e-06
-6.54346e-05
5.01689e-06
-6.46605e-05
4.77207e-06
-6.38511e-05
4.49788e-06