/*--------------------------------*- C++ -*----------------------------------*\
  =========                 |
  \\      /  F ield         | OpenFOAM: The Open Source CFD Toolbox
   \\    /   O peration     | Website:  https://openfoam.org
    \\  /    A nd           | Version:  12
     \\/     M anipulation  |
\*---------------------------------------------------------------------------*/
FoamFile
{
    format      ascii;
    class       volScalarField;
    location    "10.01";
    object      T;
}
// * * * * * * * * * * * * * * * * * * * * * * * * * * * * * * * * * * * * * //

dimensions      [0 0 0 1 0 0 0];

internalField   nonuniform List<scalar> 
40000
(
298.486
294.3
293.407
293.195
293.139
293.123
293.118
293.116
293.115
293.115
293.115
293.115
293.115
293.115
293.115
293.115
293.115
293.115
293.115
293.115
293.115
293.115
293.115
293.115
293.115
293.115
293.115
293.115
293.115
293.115
293.115
293.115
293.115
293.115
293.115
293.115
293.115
293.115
293.115
293.115
293.115
293.115
293.115
293.115
293.115
293.115
293.115
293.115
293.115
293.115
293.115
293.115
293.115
293.115
293.115
293.115
293.115
293.115
293.115
293.115
293.115
293.115
293.115
293.115
293.115
293.115
293.115
293.115
293.115
293.115
293.115
293.115
293.115
293.115
293.115
293.115
293.115
293.115
293.115
293.115
293.115
293.115
293.115
293.115
293.115
293.115
293.115
293.115
293.115
293.115
293.115
293.115
293.115
293.115
293.115
293.115
293.115
293.115
293.114
293.113
293.111
293.105
293.098
293.084
293.064
293.035
292.998
292.948
292.889
292.814
292.728
292.631
292.527
292.422
292.318
292.218
292.124
292.038
291.961
291.891
291.829
291.774
291.725
291.682
291.64
291.6
291.561
291.52
291.478
291.432
291.381
291.326
291.266
291.2
291.131
291.057
290.978
290.898
290.816
290.736
290.657
290.586
290.523
290.47
290.429
290.399
290.378
290.363
290.353
290.347
290.342
290.339
290.335
290.331
290.327
290.323
290.318
290.313
290.307
290.301
290.295
290.288
290.281
290.273
290.265
290.256
290.248
290.239
290.23
290.22
290.211
290.202
290.192
290.183
290.173
290.164
290.154
290.144
290.134
290.125
290.115
290.105
290.095
290.084
290.074
290.063
290.052
290.041
290.03
290.014
289.993
289.964
289.925
289.874
289.806
289.717
289.601
289.443
289.156
288.78
298.759
294.313
293.384
293.181
293.133
293.12
293.117
293.116
293.115
293.115
293.115
293.115
293.115
293.115
293.115
293.115
293.115
293.115
293.115
293.115
293.115
293.115
293.115
293.115
293.115
293.115
293.115
293.115
293.115
293.115
293.115
293.115
293.115
293.115
293.115
293.115
293.115
293.115
293.115
293.115
293.115
293.115
293.115
293.115
293.115
293.115
293.115
293.115
293.115
293.115
293.115
293.115
293.115
293.115
293.115
293.115
293.115
293.115
293.115
293.115
293.115
293.115
293.115
293.115
293.115
293.115
293.115
293.115
293.115
293.115
293.115
293.115
293.115
293.115
293.115
293.115
293.115
293.115
293.115
293.115
293.115
293.115
293.115
293.115
293.115
293.115
293.115
293.115
293.115
293.115
293.115
293.115
293.115
293.115
293.115
293.115
293.114
293.112
293.108
293.1
293.086
293.061
293.023
292.968
292.896
292.804
292.695
292.571
292.433
292.284
292.135
291.992
291.862
291.748
291.65
291.567
291.499
291.444
291.399
291.364
291.338
291.32
291.307
291.296
291.284
291.27
291.249
291.22
291.179
291.125
291.061
290.991
290.919
290.849
290.784
290.724
290.669
290.621
290.578
290.543
290.514
290.491
290.474
290.462
290.453
290.447
290.442
290.438
290.435
290.431
290.428
290.424
290.421
290.417
290.413
290.409
290.405
290.401
290.397
290.393
290.39
290.386
290.383
290.381
290.379
290.377
290.375
290.374
290.374
290.374
290.374
290.375
290.377
290.378
290.381
290.383
290.386
290.39
290.393
290.397
290.402
290.406
290.41
290.414
290.418
290.422
290.424
290.424
290.414
290.396
290.367
290.324
290.263
290.178
290.064
289.913
289.716
289.461
289.13
288.674
299.076
294.42
293.403
293.182
293.132
293.12
293.116
293.116
293.115
293.115
293.115
293.115
293.115
293.115
293.115
293.115
293.115
293.115
293.115
293.115
293.115
293.115
293.115
293.115
293.115
293.115
293.115
293.115
293.115
293.115
293.115
293.115
293.115
293.115
293.115
293.115
293.115
293.115
293.115
293.115
293.115
293.115
293.115
293.115
293.115
293.115
293.115
293.115
293.115
293.115
293.115
293.115
293.115
293.115
293.115
293.115
293.115
293.115
293.115
293.115
293.115
293.115
293.115
293.115
293.115
293.115
293.115
293.115
293.115
293.115
293.115
293.115
293.115
293.115
293.115
293.115
293.115
293.115
293.115
293.115
293.115
293.115
293.115
293.115
293.115
293.115
293.115
293.115
293.115
293.115
293.115
293.115
293.115
293.115
293.114
293.113
293.109
293.102
293.088
293.063
293.02
292.956
292.866
292.746
292.6
292.431
292.246
292.052
291.857
291.676
291.516
291.381
291.271
291.184
291.117
291.065
291.028
291.001
290.985
290.977
290.974
290.977
290.98
290.984
290.988
290.986
290.974
290.95
290.913
290.87
290.822
290.777
290.734
290.699
290.67
290.648
290.632
290.621
290.615
290.612
290.612
290.614
290.616
290.617
290.619
290.62
290.62
290.619
290.617
290.615
290.612
290.608
290.605
290.601
290.599
290.596
290.594
290.593
290.592
290.593
290.594
290.597
290.6
290.605
290.61
290.617
290.625
290.634
290.644
290.655
290.667
290.68
290.693
290.708
290.723
290.739
290.755
290.772
290.789
290.805
290.822
290.838
290.853
290.866
290.878
290.887
290.891
290.884
290.869
290.842
290.8
290.739
290.653
290.536
290.378
290.171
289.902
289.561
289.143
288.594
299.368
294.546
293.438
293.191
293.134
293.12
293.116
293.116
293.115
293.115
293.115
293.115
293.115
293.115
293.115
293.115
293.115
293.115
293.115
293.115
293.115
293.115
293.115
293.115
293.115
293.115
293.115
293.115
293.115
293.115
293.115
293.115
293.115
293.115
293.115
293.115
293.115
293.115
293.115
293.115
293.115
293.115
293.115
293.115
293.115
293.115
293.115
293.115
293.115
293.115
293.115
293.115
293.115
293.115
293.115
293.115
293.115
293.115
293.115
293.115
293.115
293.115
293.115
293.115
293.115
293.115
293.115
293.115
293.115
293.115
293.115
293.115
293.115
293.115
293.115
293.115
293.115
293.115
293.115
293.115
293.115
293.115
293.115
293.115
293.115
293.115
293.115
293.115
293.115
293.115
293.115
293.115
293.115
293.114
293.113
293.108
293.101
293.085
293.056
293.006
292.93
292.821
292.676
292.497
292.291
292.069
291.84
291.621
291.424
291.259
291.126
291.025
290.949
290.894
290.856
290.83
290.814
290.805
290.802
290.804
290.81
290.819
290.83
290.841
290.846
290.845
290.837
290.823
290.803
290.783
290.766
290.753
290.745
290.744
290.747
290.756
290.768
290.782
290.797
290.813
290.827
290.84
290.852
290.861
290.867
290.872
290.874
290.874
290.873
290.871
290.869
290.866
290.863
290.86
290.858
290.857
290.857
290.858
290.86
290.865
290.87
290.878
290.887
290.898
290.911
290.926
290.942
290.96
290.979
290.999
291.021
291.044
291.068
291.092
291.117
291.143
291.168
291.193
291.218
291.242
291.265
291.286
291.305
291.321
291.334
291.341
291.339
291.328
291.307
291.273
291.22
291.145
291.04
290.897
290.705
290.453
290.129
289.721
289.217
288.585
299.635
294.674
293.482
293.203
293.137
293.121
293.117
293.116
293.115
293.115
293.115
293.115
293.115
293.115
293.115
293.115
293.115
293.115
293.115
293.115
293.115
293.115
293.115
293.115
293.115
293.115
293.115
293.115
293.115
293.115
293.115
293.115
293.115
293.115
293.115
293.115
293.115
293.115
293.115
293.115
293.115
293.115
293.115
293.115
293.115
293.115
293.115
293.115
293.115
293.115
293.115
293.115
293.115
293.115
293.115
293.115
293.115
293.115
293.115
293.115
293.115
293.115
293.115
293.115
293.115
293.115
293.115
293.115
293.115
293.115
293.115
293.115
293.115
293.115
293.115
293.115
293.115
293.115
293.115
293.115
293.115
293.115
293.115
293.115
293.115
293.115
293.115
293.115
293.115
293.115
293.115
293.115
293.114
293.113
293.11
293.104
293.091
293.065
293.021
292.948
292.84
292.691
292.504
292.284
292.042
291.794
291.556
291.344
291.171
291.037
290.939
290.87
290.822
290.792
290.772
290.761
290.755
290.754
290.757
290.763
290.773
290.784
290.795
290.804
290.811
290.816
290.818
290.819
290.821
290.827
290.837
290.853
290.873
290.898
290.927
290.957
290.988
291.019
291.049
291.078
291.102
291.123
291.14
291.154
291.163
291.169
291.172
291.172
291.171
291.167
291.164
291.16
291.156
291.153
291.151
291.15
291.151
291.155
291.16
291.167
291.176
291.187
291.201
291.217
291.235
291.256
291.278
291.302
291.328
291.355
291.383
291.413
291.443
291.474
291.505
291.536
291.567
291.597
291.626
291.653
291.679
291.702
291.721
291.738
291.749
291.752
291.748
291.735
291.711
291.672
291.613
291.528
291.409
291.247
291.029
290.743
290.376
289.915
289.35
288.671
299.875
294.795
293.525
293.215
293.14
293.122
293.117
293.116
293.115
293.115
293.115
293.115
293.115
293.115
293.115
293.115
293.115
293.115
293.115
293.115
293.115
293.115
293.115
293.115
293.115
293.115
293.115
293.115
293.115
293.115
293.115
293.115
293.115
293.115
293.115
293.115
293.115
293.115
293.115
293.115
293.115
293.115
293.115
293.115
293.115
293.115
293.115
293.115
293.115
293.115
293.115
293.115
293.115
293.115
293.115
293.115
293.115
293.115
293.115
293.115
293.115
293.115
293.115
293.115
293.115
293.115
293.115
293.115
293.115
293.115
293.115
293.115
293.115
293.115
293.115
293.115
293.115
293.115
293.115
293.115
293.115
293.115
293.115
293.115
293.115
293.115
293.115
293.115
293.115
293.115
293.115
293.115
293.114
293.113
293.108
293.099
293.082
293.048
292.991
292.9
292.768
292.592
292.377
292.132
291.873
291.619
291.391
291.198
291.052
290.946
290.875
290.829
290.801
290.785
290.776
290.773
290.773
290.777
290.784
290.792
290.802
290.814
290.826
290.839
290.852
290.866
290.882
290.9
290.924
290.951
290.984
291.021
291.063
291.108
291.155
291.202
291.248
291.293
291.334
291.371
291.404
291.431
291.452
291.467
291.477
291.482
291.483
291.481
291.476
291.47
291.464
291.458
291.452
291.447
291.444
291.443
291.443
291.447
291.452
291.461
291.473
291.487
291.503
291.522
291.543
291.568
291.594
291.622
291.651
291.682
291.715
291.748
291.782
291.817
291.851
291.885
291.919
291.951
291.983
292.012
292.039
292.063
292.083
292.099
292.109
292.111
292.107
292.094
292.07
292.031
291.97
291.88
291.753
291.577
291.34
291.027
290.624
290.116
289.492
288.739
300.092
294.911
293.567
293.229
293.144
293.123
293.117
293.116
293.115
293.115
293.115
293.115
293.115
293.115
293.115
293.115
293.115
293.115
293.115
293.115
293.115
293.115
293.115
293.115
293.115
293.115
293.115
293.115
293.115
293.115
293.115
293.115
293.115
293.115
293.115
293.115
293.115
293.115
293.115
293.115
293.115
293.115
293.115
293.115
293.115
293.115
293.115
293.115
293.115
293.115
293.115
293.115
293.115
293.115
293.115
293.115
293.115
293.115
293.115
293.115
293.115
293.115
293.115
293.115
293.115
293.115
293.115
293.115
293.115
293.115
293.115
293.115
293.115
293.115
293.115
293.115
293.115
293.115
293.115
293.115
293.115
293.115
293.115
293.115
293.115
293.115
293.115
293.115
293.115
293.115
293.115
293.115
293.114
293.112
293.107
293.096
293.075
293.037
292.972
292.87
292.725
292.534
292.303
292.046
291.783
291.534
291.318
291.145
291.018
290.932
290.877
290.846
290.829
290.822
290.821
290.824
290.83
290.838
290.847
290.858
290.87
290.884
290.9
290.919
290.942
290.967
290.996
291.031
291.07
291.115
291.165
291.219
291.276
291.336
291.396
291.455
291.512
291.565
291.615
291.659
291.698
291.73
291.755
291.774
291.784
291.787
291.783
291.775
291.765
291.754
291.743
291.733
291.723
291.715
291.709
291.706
291.706
291.708
291.713
291.721
291.733
291.748
291.765
291.785
291.807
291.833
291.861
291.89
291.921
291.953
291.987
292.021
292.057
292.092
292.128
292.163
292.198
292.232
292.264
292.295
292.324
292.35
292.372
292.389
292.4
292.405
292.404
292.396
292.376
292.34
292.282
292.193
292.063
291.88
291.631
291.298
290.864
290.311
289.623
288.784
300.289
295.02
293.608
293.243
293.149
293.124
293.118
293.116
293.115
293.115
293.115
293.115
293.115
293.115
293.115
293.115
293.115
293.115
293.115
293.115
293.115
293.115
293.115
293.115
293.115
293.115
293.115
293.115
293.115
293.115
293.115
293.115
293.115
293.115
293.115
293.115
293.115
293.115
293.115
293.115
293.115
293.115
293.115
293.115
293.115
293.115
293.115
293.115
293.115
293.115
293.115
293.115
293.115
293.115
293.115
293.115
293.115
293.115
293.115
293.115
293.115
293.115
293.115
293.115
293.115
293.115
293.115
293.115
293.115
293.115
293.115
293.115
293.115
293.115
293.115
293.115
293.115
293.115
293.115
293.115
293.115
293.115
293.115
293.115
293.115
293.115
293.115
293.115
293.115
293.115
293.115
293.115
293.114
293.112
293.106
293.096
293.074
293.034
292.967
292.861
292.712
292.515
292.281
292.022
291.76
291.519
291.313
291.152
291.037
290.96
290.914
290.891
290.881
290.88
290.885
290.893
290.903
290.914
290.926
290.941
290.957
290.976
291
291.026
291.057
291.092
291.134
291.179
291.231
291.286
291.346
291.41
291.475
291.54
291.603
291.665
291.722
291.775
291.823
291.865
291.901
291.932
291.955
291.973
291.987
291.997
292.002
292.003
291.999
291.991
291.98
291.969
291.958
291.947
291.938
291.932
291.928
291.928
291.93
291.936
291.945
291.958
291.974
291.992
292.013
292.038
292.064
292.092
292.121
292.152
292.184
292.217
292.25
292.284
292.318
292.352
292.385
292.419
292.451
292.483
292.513
292.542
292.568
292.589
292.604
292.617
292.625
292.626
292.617
292.591
292.542
292.46
292.333
292.15
291.894
291.548
291.089
290.494
289.743
288.815
300.468
295.123
293.648
293.257
293.153
293.125
293.118
293.116
293.115
293.115
293.115
293.115
293.115
293.115
293.115
293.115
293.115
293.115
293.115
293.115
293.115
293.115
293.115
293.115
293.115
293.115
293.115
293.115
293.115
293.115
293.115
293.115
293.115
293.115
293.115
293.115
293.115
293.115
293.115
293.115
293.115
293.115
293.115
293.115
293.115
293.115
293.115
293.115
293.115
293.115
293.115
293.115
293.115
293.115
293.115
293.115
293.115
293.115
293.115
293.115
293.115
293.115
293.115
293.115
293.115
293.115
293.115
293.115
293.115
293.115
293.115
293.115
293.115
293.115
293.115
293.115
293.115
293.115
293.115
293.115
293.115
293.115
293.115
293.115
293.115
293.115
293.115
293.115
293.115
293.115
293.115
293.115
293.114
293.112
293.107
293.097
293.076
293.038
292.973
292.872
292.726
292.534
292.302
292.047
291.791
291.554
291.354
291.197
291.086
291.013
290.969
290.947
290.941
290.943
290.951
290.963
290.976
290.991
291.008
291.027
291.049
291.074
291.104
291.137
291.175
291.218
291.266
291.319
291.375
291.435
291.497
291.558
291.619
291.678
291.731
291.779
291.822
291.858
291.887
291.914
291.94
291.965
291.992
292.019
292.045
292.07
292.092
292.112
292.127
292.136
292.141
292.14
292.136
292.13
292.124
292.119
292.114
292.111
292.111
292.113
292.119
292.128
292.14
292.154
292.172
292.192
292.215
292.239
292.264
292.291
292.319
292.348
292.377
292.408
292.438
292.468
292.498
292.528
292.558
292.588
292.617
292.645
292.67
292.693
292.716
292.738
292.758
292.775
292.784
292.776
292.744
292.676
292.558
292.38
292.125
291.772
291.294
290.663
289.852
288.838
300.631
295.221
293.687
293.271
293.158
293.127
293.118
293.116
293.116
293.115
293.115
293.115
293.115
293.115
293.115
293.115
293.115
293.115
293.115
293.115
293.115
293.115
293.115
293.115
293.115
293.115
293.115
293.115
293.115
293.115
293.115
293.115
293.115
293.115
293.115
293.115
293.115
293.115
293.115
293.115
293.115
293.115
293.115
293.115
293.115
293.115
293.115
293.115
293.115
293.115
293.115
293.115
293.115
293.115
293.115
293.115
293.115
293.115
293.115
293.115
293.115
293.115
293.115
293.115
293.115
293.115
293.115
293.115
293.115
293.115
293.115
293.115
293.115
293.115
293.115
293.115
293.115
293.115
293.115
293.115
293.115
293.115
293.115
293.115
293.115
293.115
293.115
293.115
293.115
293.115
293.115
293.115
293.114
293.112
293.108
293.099
293.082
293.048
292.989
292.897
292.761
292.58
292.359
292.113
291.863
291.628
291.427
291.268
291.151
291.073
291.026
291.002
290.994
290.998
291.008
291.022
291.04
291.06
291.082
291.106
291.133
291.165
291.198
291.237
291.279
291.325
291.376
291.428
291.483
291.539
291.593
291.644
291.69
291.731
291.765
291.791
291.812
291.829
291.849
291.872
291.9
291.931
291.966
292.004
292.042
292.079
292.115
292.148
292.178
292.204
292.226
292.243
292.254
292.259
292.262
292.264
292.264
292.264
292.264
292.266
292.27
292.277
292.285
292.296
292.309
292.324
292.342
292.362
292.383
292.406
292.43
292.454
292.48
292.506
292.532
292.56
292.589
292.617
292.643
292.669
292.693
292.716
292.737
292.759
292.78
292.803
292.828
292.854
292.879
292.893
292.884
292.836
292.734
292.567
292.318
291.965
291.476
290.815
289.948
288.855
300.781
295.314
293.725
293.285
293.162
293.128
293.119
293.116
293.116
293.115
293.115
293.115
293.115
293.115
293.115
293.115
293.115
293.115
293.115
293.115
293.115
293.115
293.115
293.115
293.115
293.115
293.115
293.115
293.115
293.115
293.115
293.115
293.115
293.115
293.115
293.115
293.115
293.115
293.115
293.115
293.115
293.115
293.115
293.115
293.115
293.115
293.115
293.115
293.115
293.115
293.115
293.115
293.115
293.115
293.115
293.115
293.115
293.115
293.115
293.115
293.115
293.115
293.115
293.115
293.115
293.115
293.115
293.115
293.115
293.115
293.115
293.115
293.115
293.115
293.115
293.115
293.115
293.115
293.115
293.115
293.115
293.115
293.115
293.115
293.115
293.115
293.115
293.115
293.115
293.115
293.115
293.115
293.114
293.113
293.109
293.103
293.087
293.06
293.011
292.93
292.81
292.647
292.443
292.21
291.967
291.734
291.528
291.36
291.232
291.143
291.086
291.054
291.041
291.042
291.053
291.069
291.091
291.115
291.141
291.171
291.202
291.236
291.274
291.314
291.357
291.403
291.45
291.498
291.546
291.592
291.632
291.667
291.696
291.717
291.732
291.741
291.75
291.764
291.785
291.813
291.849
291.889
291.935
291.983
292.032
292.08
292.126
292.17
292.21
292.247
292.279
292.308
292.333
292.352
292.367
292.378
292.386
292.391
292.397
292.402
292.408
292.414
292.422
292.431
292.442
292.455
292.47
292.486
292.505
292.524
292.545
292.567
292.59
292.614
292.64
292.665
292.689
292.713
292.735
292.756
292.776
292.795
292.813
292.83
292.848
292.867
292.888
292.911
292.935
292.956
292.967
292.943
292.861
292.709
292.473
292.126
291.632
290.947
290.031
288.869
300.92
295.402
293.762
293.298
293.167
293.13
293.12
293.117
293.116
293.115
293.115
293.115
293.115
293.115
293.115
293.115
293.115
293.115
293.115
293.115
293.115
293.115
293.115
293.115
293.115
293.115
293.115
293.115
293.115
293.115
293.115
293.115
293.115
293.115
293.115
293.115
293.115
293.115
293.115
293.115
293.115
293.115
293.115
293.115
293.115
293.115
293.115
293.115
293.115
293.115
293.115
293.115
293.115
293.115
293.115
293.115
293.115
293.115
293.115
293.115
293.115
293.115
293.115
293.115
293.115
293.115
293.115
293.115
293.115
293.115
293.115
293.115
293.115
293.115
293.115
293.115
293.115
293.115
293.115
293.115
293.115
293.115
293.115
293.115
293.115
293.115
293.115
293.115
293.115
293.115
293.115
293.115
293.114
293.113
293.111
293.106
293.094
293.072
293.033
292.967
292.866
292.725
292.542
292.328
292.096
291.867
291.657
291.478
291.335
291.229
291.155
291.11
291.088
291.082
291.088
291.104
291.127
291.153
291.182
291.214
291.248
291.285
291.323
291.363
291.405
291.448
291.49
291.53
291.568
291.601
291.628
291.648
291.662
291.668
291.671
291.673
291.682
291.7
291.727
291.763
291.808
291.86
291.916
291.974
292.033
292.092
292.147
292.2
292.248
292.292
292.333
292.368
292.4
292.428
292.452
292.473
292.49
292.503
292.515
292.524
292.533
292.542
292.552
292.562
292.573
292.586
292.599
292.615
292.632
292.649
292.668
292.689
292.711
292.732
292.753
292.772
292.791
292.809
292.827
292.843
292.859
292.874
292.888
292.903
292.917
292.932
292.948
292.965
292.983
293
293.011
293.001
292.94
292.808
292.589
292.254
291.761
291.059
290.102
288.879
301.048
295.486
293.798
293.312
293.172
293.132
293.12
293.117
293.116
293.115
293.115
293.115
293.115
293.115
293.115
293.115
293.115
293.115
293.115
293.115
293.115
293.115
293.115
293.115
293.115
293.115
293.115
293.115
293.115
293.115
293.115
293.115
293.115
293.115
293.115
293.115
293.115
293.115
293.115
293.115
293.115
293.115
293.115
293.115
293.115
293.115
293.115
293.115
293.115
293.115
293.115
293.115
293.115
293.115
293.115
293.115
293.115
293.115
293.115
293.115
293.115
293.115
293.115
293.115
293.115
293.115
293.115
293.115
293.115
293.115
293.115
293.115
293.115
293.115
293.115
293.115
293.115
293.115
293.115
293.115
293.115
293.115
293.115
293.115
293.115
293.115
293.115
293.115
293.115
293.115
293.115
293.115
293.115
293.114
293.112
293.108
293.1
293.084
293.054
293.003
292.923
292.805
292.649
292.458
292.244
292.023
291.812
291.623
291.464
291.339
291.245
291.181
291.143
291.124
291.121
291.132
291.15
291.175
291.205
291.237
291.272
291.309
291.347
291.385
291.424
291.462
291.498
291.531
291.559
291.582
291.597
291.606
291.609
291.608
291.607
291.61
291.624
291.648
291.683
291.729
291.785
291.848
291.914
291.983
292.052
292.118
292.182
292.241
292.296
292.346
292.391
292.432
292.468
292.501
292.529
292.555
292.577
292.597
292.615
292.63
292.644
292.657
292.669
292.681
292.694
292.707
292.721
292.735
292.751
292.767
292.784
292.8
292.816
292.832
292.847
292.863
292.877
292.891
292.905
292.918
292.93
292.942
292.953
292.965
292.976
292.987
292.999
293.011
293.023
293.034
293.038
293.026
292.981
292.87
292.671
292.353
291.866
291.153
290.16
288.887
301.168
295.566
293.833
293.325
293.177
293.133
293.121
293.117
293.116
293.115
293.115
293.115
293.115
293.115
293.115
293.115
293.115
293.115
293.115
293.115
293.115
293.115
293.115
293.115
293.115
293.115
293.115
293.115
293.115
293.115
293.115
293.115
293.115
293.115
293.115
293.115
293.115
293.115
293.115
293.115
293.115
293.115
293.115
293.115
293.115
293.115
293.115
293.115
293.115
293.115
293.115
293.115
293.115
293.115
293.115
293.115
293.115
293.115
293.115
293.115
293.115
293.115
293.115
293.115
293.115
293.115
293.115
293.115
293.115
293.115
293.115
293.115
293.115
293.115
293.115
293.115
293.115
293.115
293.115
293.115
293.115
293.115
293.115
293.115
293.115
293.115
293.115
293.115
293.115
293.115
293.115
293.115
293.115
293.114
293.113
293.111
293.105
293.094
293.072
293.035
292.974
292.881
292.753
292.59
292.399
292.194
291.988
291.793
291.622
291.478
291.363
291.277
291.217
291.18
291.161
291.159
291.169
291.188
291.213
291.243
291.276
291.311
291.347
291.383
291.418
291.451
291.481
291.508
291.529
291.543
291.552
291.555
291.553
291.55
291.55
291.559
291.579
291.612
291.659
291.717
291.783
291.857
291.934
292.012
292.088
292.162
292.231
292.296
292.355
292.408
292.457
292.5
292.538
292.573
292.603
292.631
292.656
292.678
292.698
292.716
292.733
292.749
292.763
292.777
292.791
292.804
292.817
292.83
292.844
292.857
292.87
292.883
292.896
292.908
292.92
292.932
292.944
292.955
292.966
292.976
292.985
292.995
293.003
293.012
293.02
293.029
293.037
293.045
293.052
293.057
293.055
293.038
292.995
292.903
292.725
292.425
291.947
291.228
290.207
288.894
301.279
295.643
293.866
293.338
293.181
293.135
293.121
293.117
293.116
293.115
293.115
293.115
293.115
293.115
293.115
293.115
293.115
293.115
293.115
293.115
293.115
293.115
293.115
293.115
293.115
293.115
293.115
293.115
293.115
293.115
293.115
293.115
293.115
293.115
293.115
293.115
293.115
293.115
293.115
293.115
293.115
293.115
293.115
293.115
293.115
293.115
293.115
293.115
293.115
293.115
293.115
293.115
293.115
293.115
293.115
293.115
293.115
293.115
293.115
293.115
293.115
293.115
293.115
293.115
293.115
293.115
293.115
293.115
293.115
293.115
293.115
293.115
293.115
293.115
293.115
293.115
293.115
293.115
293.115
293.115
293.115
293.115
293.115
293.115
293.115
293.115
293.115
293.115
293.115
293.115
293.115
293.115
293.115
293.114
293.114
293.112
293.108
293.102
293.086
293.06
293.016
292.947
292.847
292.715
292.553
292.369
292.176
291.985
291.807
291.649
291.515
291.406
291.322
291.262
291.222
291.201
291.196
291.202
291.217
291.24
291.268
291.298
291.33
291.362
291.393
291.421
291.447
291.468
291.484
291.495
291.499
291.5
291.498
291.498
291.504
291.521
291.553
291.598
291.657
291.727
291.806
291.89
291.976
292.061
292.143
292.221
292.294
292.361
292.422
292.477
292.527
292.57
292.609
292.645
292.675
292.703
292.729
292.75
292.771
292.789
292.807
292.822
292.837
292.85
292.863
292.876
292.888
292.9
292.912
292.923
292.934
292.945
292.955
292.965
292.975
292.985
292.994
293.002
293.011
293.018
293.026
293.033
293.04
293.046
293.052
293.058
293.064
293.069
293.072
293.072
293.066
293.045
293.001
292.918
292.758
292.475
292.009
291.288
290.245
288.899
301.384
295.717
293.899
293.351
293.186
293.137
293.122
293.117
293.116
293.115
293.115
293.115
293.115
293.115
293.115
293.115
293.115
293.115
293.115
293.115
293.115
293.115
293.115
293.115
293.115
293.115
293.115
293.115
293.115
293.115
293.115
293.115
293.115
293.115
293.115
293.115
293.115
293.115
293.115
293.115
293.115
293.115
293.115
293.115
293.115
293.115
293.115
293.115
293.115
293.115
293.115
293.115
293.115
293.115
293.115
293.115
293.115
293.115
293.115
293.115
293.115
293.115
293.115
293.115
293.115
293.115
293.115
293.115
293.115
293.115
293.115
293.115
293.115
293.115
293.115
293.115
293.115
293.115
293.115
293.115
293.115
293.115
293.115
293.115
293.115
293.115
293.115
293.115
293.115
293.115
293.115
293.115
293.115
293.115
293.114
293.113
293.111
293.106
293.097
293.08
293.05
293.001
292.927
292.825
292.694
292.539
292.366
292.187
292.012
291.847
291.7
291.573
291.467
291.382
291.319
291.274
291.247
291.234
291.234
291.244
291.26
291.283
291.307
291.333
291.358
291.382
291.403
291.421
291.433
291.442
291.446
291.448
291.45
291.457
291.475
291.506
291.551
291.612
291.684
291.767
291.856
291.949
292.041
292.131
292.216
292.296
292.369
292.437
292.497
292.551
292.599
292.642
292.68
292.714
292.744
292.771
292.795
292.816
292.835
292.853
292.869
292.884
292.898
292.91
292.922
292.933
292.944
292.954
292.964
292.974
292.983
292.992
293
293.008
293.016
293.023
293.03
293.037
293.043
293.049
293.055
293.06
293.065
293.07
293.074
293.078
293.082
293.084
293.085
293.082
293.073
293.05
293.005
292.923
292.777
292.509
292.055
291.334
290.276
288.904
301.482
295.788
293.931
293.364
293.191
293.138
293.122
293.117
293.116
293.116
293.115
293.115
293.115
293.115
293.115
293.115
293.115
293.115
293.115
293.115
293.115
293.115
293.115
293.115
293.115
293.115
293.115
293.115
293.115
293.115
293.115
293.115
293.115
293.115
293.115
293.115
293.115
293.115
293.115
293.115
293.115
293.115
293.115
293.115
293.115
293.115
293.115
293.115
293.115
293.115
293.115
293.115
293.115
293.115
293.115
293.115
293.115
293.115
293.115
293.115
293.115
293.115
293.115
293.115
293.115
293.115
293.115
293.115
293.115
293.115
293.115
293.115
293.115
293.115
293.115
293.115
293.115
293.115
293.115
293.115
293.115
293.115
293.115
293.115
293.115
293.115
293.115
293.115
293.115
293.115
293.115
293.115
293.115
293.115
293.115
293.114
293.113
293.109
293.104
293.094
293.074
293.041
292.989
292.916
292.815
292.691
292.545
292.387
292.223
292.062
291.911
291.773
291.651
291.547
291.462
291.393
291.342
291.306
291.285
291.274
291.275
291.283
291.295
291.312
291.33
291.348
291.364
291.377
291.389
291.397
291.403
291.41
291.422
291.442
291.476
291.523
291.586
291.661
291.746
291.84
291.936
292.033
292.128
292.218
292.304
292.382
292.453
292.518
292.575
292.627
292.672
292.712
292.748
292.779
292.807
292.833
292.854
292.874
292.892
292.908
292.922
292.936
292.947
292.958
292.969
292.979
292.988
292.997
293.005
293.013
293.02
293.027
293.034
293.04
293.046
293.052
293.057
293.062
293.067
293.071
293.075
293.079
293.083
293.086
293.089
293.092
293.094
293.095
293.094
293.089
293.077
293.053
293.008
292.927
292.785
292.532
292.089
291.37
290.3
288.908
301.575
295.856
293.963
293.376
293.196
293.14
293.123
293.118
293.116
293.116
293.115
293.115
293.115
293.115
293.115
293.115
293.115
293.115
293.115
293.115
293.115
293.115
293.115
293.115
293.115
293.115
293.115
293.115
293.115
293.115
293.115
293.115
293.115
293.115
293.115
293.115
293.115
293.115
293.115
293.115
293.115
293.115
293.115
293.115
293.115
293.115
293.115
293.115
293.115
293.115
293.115
293.115
293.115
293.115
293.115
293.115
293.115
293.115
293.115
293.115
293.115
293.115
293.115
293.115
293.115
293.115
293.115
293.115
293.115
293.115
293.115
293.115
293.115
293.115
293.115
293.115
293.115
293.115
293.115
293.115
293.115
293.115
293.115
293.115
293.115
293.115
293.115
293.115
293.115
293.115
293.115
293.115
293.115
293.115
293.115
293.114
293.114
293.112
293.109
293.103
293.091
293.069
293.036
292.984
292.913
292.818
292.703
292.571
292.428
292.28
292.134
291.995
291.867
291.751
291.649
291.561
291.489
291.43
291.386
291.355
291.335
291.325
291.322
291.325
291.331
291.341
291.352
291.362
291.371
291.381
291.393
291.408
291.434
291.471
291.522
291.587
291.664
291.751
291.846
291.945
292.044
292.141
292.234
292.322
292.403
292.477
292.543
292.602
292.656
292.702
292.744
292.78
292.812
292.84
292.866
292.888
292.907
292.925
292.94
292.954
292.967
292.978
292.988
292.998
293.006
293.015
293.022
293.029
293.036
293.042
293.048
293.053
293.059
293.063
293.068
293.072
293.076
293.08
293.083
293.086
293.089
293.092
293.094
293.097
293.099
293.1
293.101
293.101
293.099
293.093
293.081
293.056
293.011
292.93
292.79
292.545
292.112
291.397
290.319
288.912
301.662
295.922
293.993
293.389
293.201
293.142
293.124
293.118
293.116
293.116
293.115
293.115
293.115
293.115
293.115
293.115
293.115
293.115
293.115
293.115
293.115
293.115
293.115
293.115
293.115
293.115
293.115
293.115
293.115
293.115
293.115
293.115
293.115
293.115
293.115
293.115
293.115
293.115
293.115
293.115
293.115
293.115
293.115
293.115
293.115
293.115
293.115
293.115
293.115
293.115
293.115
293.115
293.115
293.115
293.115
293.115
293.115
293.115
293.115
293.115
293.115
293.115
293.115
293.115
293.115
293.115
293.115
293.115
293.115
293.115
293.115
293.115
293.115
293.115
293.115
293.115
293.115
293.115
293.115
293.115
293.115
293.115
293.115
293.115
293.115
293.115
293.115
293.115
293.115
293.115
293.115
293.115
293.115