/*--------------------------------*- C++ -*----------------------------------*\
  =========                 |
  \\      /  F ield         | OpenFOAM: The Open Source CFD Toolbox
   \\    /   O peration     | Website:  https://openfoam.org
    \\  /    A nd           | Version:  12
     \\/     M anipulation  |
\*---------------------------------------------------------------------------*/
FoamFile
{
    format      ascii;
    class       volVectorField;
    location    "10.01";
    object      U;
}
// * * * * * * * * * * * * * * * * * * * * * * * * * * * * * * * * * * * * * //

dimensions      [0 1 -1 0 0 0 0];

internalField   nonuniform List<vector> 
40000
(
(-0.0119128 0.00835187 0)
(-0.0169824 -0.000223594 0)
(-0.0148263 -0.00176497 0)
(-0.0116962 -0.00152516 0)
(-0.0090694 -0.00103872 0)
(-0.00720342 -0.000662226 0)
(-0.00591752 -0.000417435 0)
(-0.00502086 -0.000265324 0)
(-0.00438114 -0.000172011 0)
(-0.0039138 -0.000114023 0)
(-0.00356402 -7.72303e-05 0)
(-0.00329691 -5.32322e-05 0)
(-0.00308955 -3.71147e-05 0)
(-0.00292647 -2.59675e-05 0)
(-0.002797 -1.80348e-05 0)
(-0.00269362 -1.22339e-05 0)
(-0.00261089 -7.88393e-06 0)
(-0.00254478 -4.53851e-06 0)
(-0.00249228 -1.90702e-06 0)
(-0.0024511 2.10836e-07 0)
(-0.00241945 1.95477e-06 0)
(-0.00239595 3.41743e-06 0)
(-0.00237947 4.67103e-06 0)
(-0.00236915 5.76478e-06 0)
(-0.00236428 6.74969e-06 0)
(-0.00236428 7.6728e-06 0)
(-0.00236866 8.58052e-06 0)
(-0.00237724 9.31954e-06 0)
(-0.00238971 9.91556e-06 0)
(-0.00240545 1.04551e-05 0)
(-0.00242412 1.09824e-05 0)
(-0.00244552 1.14939e-05 0)
(-0.00246949 1.19893e-05 0)
(-0.00249591 1.24827e-05 0)
(-0.00252469 1.29763e-05 0)
(-0.00255574 1.34803e-05 0)
(-0.00258901 1.39942e-05 0)
(-0.00262447 1.45205e-05 0)
(-0.00266211 1.50683e-05 0)
(-0.00270191 1.56311e-05 0)
(-0.00274389 1.6216e-05 0)
(-0.00278808 1.68206e-05 0)
(-0.00283449 1.74525e-05 0)
(-0.00288317 1.81151e-05 0)
(-0.00293415 1.88012e-05 0)
(-0.00298751 1.95195e-05 0)
(-0.00304332 2.02743e-05 0)
(-0.00310165 2.10627e-05 0)
(-0.00316259 2.18922e-05 0)
(-0.00322624 2.27628e-05 0)
(-0.00329269 2.368e-05 0)
(-0.00336208 2.46396e-05 0)
(-0.00343453 2.56521e-05 0)
(-0.00351018 2.67221e-05 0)
(-0.00358919 2.78489e-05 0)
(-0.0036717 2.90355e-05 0)
(-0.00375792 3.02904e-05 0)
(-0.00384801 3.16132e-05 0)
(-0.00394221 3.30127e-05 0)
(-0.00404072 3.44935e-05 0)
(-0.00414378 3.60608e-05 0)
(-0.00425166 3.77223e-05 0)
(-0.00436463 3.94875e-05 0)
(-0.00448301 4.13571e-05 0)
(-0.00460714 4.335e-05 0)
(-0.00473735 4.54658e-05 0)
(-0.00487405 4.77224e-05 0)
(-0.00501766 5.01229e-05 0)
(-0.00516861 5.26861e-05 0)
(-0.00532741 5.54144e-05 0)
(-0.00549458 5.83259e-05 0)
(-0.0056707 6.14349e-05 0)
(-0.00585638 6.47574e-05 0)
(-0.0060523 6.83091e-05 0)
(-0.00625919 7.21063e-05 0)
(-0.00647784 7.61682e-05 0)
(-0.0067091 8.05198e-05 0)
(-0.00695392 8.51825e-05 0)
(-0.00721332 9.0182e-05 0)
(-0.0074884 9.55358e-05 0)
(-0.00778036 0.00010127 0)
(-0.00809049 0.000107418 0)
(-0.00842024 0.000114008 0)
(-0.00877114 0.000121065 0)
(-0.00914492 0.000128632 0)
(-0.00954342 0.000136734 0)
(-0.00996873 0.000145446 0)
(-0.0104231 0.000154764 0)
(-0.0109092 0.0001648 0)
(-0.0114298 0.000175538 0)
(-0.0119883 0.0001871 0)
(-0.0125883 0.000199517 0)
(-0.0132341 0.000212838 0)
(-0.013931 0.000227107 0)
(-0.0146845 0.00024225 0)
(-0.0155016 0.000258105 0)
(-0.0163886 0.000275333 0)
(-0.0173539 0.00029163 0)
(-0.0184068 0.000306688 0)
(-0.0195522 0.000319551 0)
(-0.0207866 0.000329658 0)
(-0.0220935 0.000335071 0)
(-0.0234389 0.000334875 0)
(-0.0247658 0.000324658 0)
(-0.0259951 0.000301096 0)
(-0.0270364 0.00025907 0)
(-0.0278052 0.000199064 0)
(-0.0282318 0.000122663 0)
(-0.0282675 4.47609e-05 0)
(-0.0279395 -2.35187e-05 0)
(-0.0272197 -0.000105614 0)
(-0.0261243 -0.000204298 0)
(-0.0246971 -0.000309899 0)
(-0.023004 -0.00040925 0)
(-0.0211273 -0.000489833 0)
(-0.0191567 -0.000542337 0)
(-0.0171831 -0.000562029 0)
(-0.0152912 -0.000545104 0)
(-0.0135598 -0.000491926 0)
(-0.0120606 -0.000403993 0)
(-0.0108511 -0.000285524 0)
(-0.00997274 -0.000142534 0)
(-0.00944282 1.92839e-05 0)
(-0.009238 0.000184114 0)
(-0.00940663 0.000301897 0)
(-0.00996802 0.00038228 0)
(-0.010835 0.000413834 0)
(-0.011904 0.000392002 0)
(-0.0130681 0.000315153 0)
(-0.0142467 0.000191731 0)
(-0.0153986 4.81298e-05 0)
(-0.0165288 -7.97315e-05 0)
(-0.0176787 -0.000155992 0)
(-0.0189062 -0.00015818 0)
(-0.0202596 -8.46397e-05 0)
(-0.0217567 4.34143e-05 0)
(-0.0233768 0.00019387 0)
(-0.0250645 0.000335211 0)
(-0.0267472 0.000444376 0)
(-0.0283519 0.00051214 0)
(-0.0298218 0.000539044 0)
(-0.0311186 0.000533492 0)
(-0.0322212 0.000505251 0)
(-0.0331283 0.00046288 0)
(-0.0338513 0.000413571 0)
(-0.0344095 0.000363518 0)
(-0.0348288 0.000316527 0)
(-0.0351414 0.000275776 0)
(-0.0353804 0.000242945 0)
(-0.0355799 0.000220397 0)
(-0.0357761 0.000207421 0)
(-0.0360059 0.000204443 0)
(-0.0363052 0.000214749 0)
(-0.0367073 0.000240138 0)
(-0.0372452 0.000281188 0)
(-0.0379499 0.000339477 0)
(-0.0388487 0.000414381 0)
(-0.0399665 0.000506131 0)
(-0.0413259 0.000614943 0)
(-0.0429434 0.000739912 0)
(-0.0448321 0.000879609 0)
(-0.0470011 0.00103209 0)
(-0.0494532 0.0011954 0)
(-0.0521861 0.00136648 0)
(-0.0551944 0.00154152 0)
(-0.0584702 0.00171787 0)
(-0.0619985 0.00189359 0)
(-0.06576 0.00206431 0)
(-0.0697347 0.00222792 0)
(-0.0739022 0.00238186 0)
(-0.0782389 0.00252614 0)
(-0.0827185 0.00265954 0)
(-0.0873158 0.00278029 0)
(-0.0920054 0.00288926 0)
(-0.096762 0.00298585 0)
(-0.10156 0.00306997 0)
(-0.106374 0.00314112 0)
(-0.111177 0.00319878 0)
(-0.11594 0.00324104 0)
(-0.120628 0.00326581 0)
(-0.125201 0.0032681 0)
(-0.129606 0.00324193 0)
(-0.133773 0.00317939 0)
(-0.13762 0.003066 0)
(-0.141042 0.00288066 0)
(-0.143896 0.00259422 0)
(-0.145991 0.00218097 0)
(-0.147076 0.00156781 0)
(-0.146967 0.000717716 0)
(-0.145656 -0.000211561 0)
(-0.138253 -0.000637997 0)
(-0.13832 -0.00403902 0)
(-0.124348 0.000798139 0)
(-0.106847 -0.00227553 0)
(-0.0906342 -0.00756939 0)
(-0.0650876 -0.0134612 0)
(-0.037877 -0.0172506 0)
(-0.0110955 -0.016332 0)
(0.0135006 -0.00243018 0)
(0.0108766 0.00644675 0)
(-0.00999168 0.0213467 0)
(-0.0160015 0.00236748 0)
(-0.0170253 -0.00361201 0)
(-0.0159216 -0.00403616 0)
(-0.0142805 -0.00324105 0)
(-0.0127326 -0.00239471 0)
(-0.0114387 -0.00173944 0)
(-0.0103917 -0.00127232 0)
(-0.00955119 -0.000945773 0)
(-0.00887418 -0.000715673 0)
(-0.00832512 -0.000550921 0)
(-0.00787687 -0.000430508 0)
(-0.00750861 -0.000340593 0)
(-0.00720448 -0.000272043 0)
(-0.00695229 -0.000218744 0)
(-0.00674267 -0.000176535 0)
(-0.00656829 -0.000142548 0)
(-0.00642338 -0.000114743 0)
(-0.00630343 -9.16792e-05 0)
(-0.00620478 -7.22865e-05 0)
(-0.00612446 -5.57774e-05 0)
(-0.00606011 -4.15621e-05 0)
(-0.00600974 -2.91889e-05 0)
(-0.00597174 -1.83007e-05 0)
(-0.00594477 -8.60463e-06 0)
(-0.00592772 1.58444e-07 0)
(-0.00591974 8.21586e-06 0)
(-0.00591978 1.56164e-05 0)
(-0.00592758 2.22472e-05 0)
(-0.0059426 2.82368e-05 0)
(-0.00596409 3.37389e-05 0)
(-0.00599156 3.88502e-05 0)
(-0.00602461 4.36494e-05 0)
(-0.00606294 4.82076e-05 0)
(-0.00610626 5.25796e-05 0)
(-0.0061544 5.68168e-05 0)
(-0.00620718 6.09548e-05 0)
(-0.00626448 6.5029e-05 0)
(-0.00632622 6.9071e-05 0)
(-0.00639233 7.30988e-05 0)
(-0.00646281 7.71355e-05 0)
(-0.00653762 8.12021e-05 0)
(-0.00661679 8.53199e-05 0)
(-0.00670035 8.95124e-05 0)
(-0.00678836 9.37866e-05 0)
(-0.00688088 9.81645e-05 0)
(-0.00697801 0.000102665 0)
(-0.00707987 0.000107303 0)
(-0.00718655 0.000112099 0)
(-0.00729823 0.000117071 0)
(-0.00741507 0.000122238 0)
(-0.00753724 0.000127612 0)
(-0.00766495 0.000133217 0)
(-0.00779842 0.00013908 0)
(-0.0079379 0.000145219 0)
(-0.00808366 0.00015165 0)
(-0.00823598 0.000158409 0)
(-0.0083952 0.000165507 0)
(-0.00856165 0.000172985 0)
(-0.00873571 0.000180867 0)
(-0.00891778 0.000189192 0)
(-0.00910831 0.000197992 0)
(-0.00930778 0.000207308 0)
(-0.00951671 0.000217183 0)
(-0.00973565 0.000227664 0)
(-0.00996523 0.000238798 0)
(-0.0102061 0.000250645 0)
(-0.010459 0.000263256 0)
(-0.0107247 0.000276698 0)
(-0.011004 0.000291035 0)
(-0.0112979 0.000306345 0)
(-0.0116074 0.000322706 0)
(-0.0119335 0.000340217 0)
(-0.0122775 0.000358971 0)
(-0.0126407 0.000379075 0)
(-0.0130245 0.000400644 0)
(-0.0134304 0.000423816 0)
(-0.0138603 0.000448748 0)
(-0.0143159 0.000475593 0)
(-0.0147994 0.000504504 0)
(-0.015313 0.000535675 0)
(-0.0158593 0.000569323 0)
(-0.0164411 0.000605723 0)
(-0.0170614 0.000645081 0)
(-0.0177238 0.000687759 0)
(-0.0184323 0.000734046 0)
(-0.0191912 0.000784436 0)
(-0.0200057 0.000839352 0)
(-0.0208813 0.000899433 0)
(-0.0218249 0.000965338 0)
(-0.0228444 0.00103796 0)
(-0.0239494 0.00111837 0)
(-0.0251512 0.00120797 0)
(-0.0264644 0.00130841 0)
(-0.0279069 0.00142193 0)
(-0.0295001 0.00155175 0)
(-0.0312716 0.00169972 0)
(-0.0332515 0.00186525 0)
(-0.0354666 0.00204654 0)
(-0.0379301 0.00223405 0)
(-0.0406244 0.00240868 0)
(-0.0434847 0.00253579 0)
(-0.0463936 0.00257107 0)
(-0.0491861 0.00246859 0)
(-0.0516725 0.00219797 0)
(-0.0536728 0.0017562 0)
(-0.055047 0.00117256 0)
(-0.0556939 0.000488371 0)
(-0.0555659 -0.000242044 0)
(-0.0546871 -0.000979012 0)
(-0.0531403 -0.00169024 0)
(-0.0510689 -0.00232316 0)
(-0.0486346 -0.00283322 0)
(-0.0459918 -0.00319453 0)
(-0.0432746 -0.00340014 0)
(-0.0405965 -0.00345403 0)
(-0.0380508 -0.00336544 0)
(-0.0357151 -0.00314468 0)
(-0.033658 -0.00280648 0)
(-0.0319408 -0.00236948 0)
(-0.0306145 -0.00186378 0)
(-0.0297186 -0.0013213 0)
(-0.0292967 -0.000753592 0)
(-0.0294669 -0.000137559 0)
(-0.0303913 0.00051353 0)
(-0.0319931 0.00114639 0)
(-0.0342477 0.00169269 0)
(-0.037089 0.00211174 0)
(-0.0404388 0.00239436 0)
(-0.0442037 0.00257275 0)
(-0.0482888 0.00270521 0)
(-0.0525978 0.00284576 0)
(-0.0570223 0.00302141 0)
(-0.0614473 0.00321971 0)
(-0.0657671 0.00340015 0)
(-0.0698955 0.00351652 0)
(-0.0737713 0.00353483 0)
(-0.0773547 0.00344262 0)
(-0.0806199 0.00324523 0)
(-0.0835495 0.0029634 0)
(-0.0861359 0.00262282 0)
(-0.0883791 0.0022536 0)
(-0.0902891 0.00188004 0)
(-0.091888 0.00152286 0)
(-0.0932064 0.00119897 0)
(-0.094282 0.000922032 0)
(-0.0951598 0.000699346 0)
(-0.0958893 0.000536536 0)
(-0.0965186 0.000436246 0)
(-0.0970959 0.000399146 0)
(-0.0976686 0.000423834 0)
(-0.0982779 0.000508204 0)
(-0.0989654 0.000650548 0)
(-0.0997686 0.000846804 0)
(-0.100718 0.00109136 0)
(-0.101841 0.00137928 0)
(-0.103159 0.0017055 0)
(-0.104687 0.00206237 0)
(-0.106437 0.00244325 0)
(-0.108415 0.002841 0)
(-0.11062 0.00324765 0)
(-0.113045 0.00365545 0)
(-0.115682 0.00405693 0)
(-0.118514 0.00444507 0)
(-0.121524 0.00481233 0)
(-0.124689 0.00515373 0)
(-0.127987 0.0054651 0)
(-0.131389 0.00574196 0)
(-0.134867 0.00598067 0)
(-0.138393 0.00617871 0)
(-0.141938 0.00633712 0)
(-0.145474 0.006455 0)
(-0.14897 0.00653106 0)
(-0.1524 0.00656619 0)
(-0.155737 0.00656048 0)
(-0.158953 0.00651249 0)
(-0.16202 0.00642091 0)
(-0.164911 0.00628212 0)
(-0.167593 0.00609124 0)
(-0.170028 0.00584015 0)
(-0.172172 0.00551699 0)
(-0.173969 0.00510795 0)
(-0.17536 0.00459212 0)
(-0.176274 0.00393791 0)
(-0.176627 0.00309608 0)
(-0.176277 0.00199493 0)
(-0.175017 0.000534091 0)
(-0.172617 -0.00134368 0)
(-0.16878 -0.00363794 0)
(-0.163219 -0.00627958 0)
(-0.15453 -0.00876821 0)
(-0.144007 -0.0158782 0)
(-0.132673 -0.0153488 0)
(-0.117464 -0.0267088 0)
(-0.0980235 -0.033447 0)
(-0.0756273 -0.0400739 0)
(-0.0510572 -0.0429653 0)
(-0.0269181 -0.0378656 0)
(-0.00434889 -0.0174113 0)
(0.0096557 0.0136614 0)
(-0.00788239 0.0330248 0)
(-0.0133442 0.00782127 0)
(-0.0158739 -0.00267808 0)
(-0.0161055 -0.00472738 0)
(-0.0154729 -0.00434326 0)
(-0.0145908 -0.00350446 0)
(-0.0137112 -0.0027385 0)
(-0.0129123 -0.00213686 0)
(-0.012213 -0.00168215 0)
(-0.0116106 -0.00133911 0)
(-0.0110951 -0.00107808 0)
(-0.010655 -0.00087675 0)
(-0.0102798 -0.00071916 0)
(-0.00996011 -0.000593981 0)
(-0.00968753 -0.000493133 0)
(-0.00945541 -0.000410788 0)
(-0.00925801 -0.000342697 0)
(-0.00909059 -0.000285721 0)
(-0.00894922 -0.000237522 0)
(-0.00883063 -0.000196314 0)
(-0.00873206 -0.000160739 0)
(-0.00865123 -0.000129729 0)
(-0.00858619 -0.000102469 0)
(-0.00853531 -7.82874e-05 0)
(-0.00849721 -5.66573e-05 0)
(-0.00847068 -3.71184e-05 0)
(-0.00845474 -1.92641e-05 0)
(-0.0084485 -2.74761e-06 0)
(-0.00845088 1.23605e-05 0)
(-0.00846171 2.61145e-05 0)
(-0.00848026 3.88136e-05 0)
(-0.00850605 5.06376e-05 0)
(-0.00853872 6.17474e-05 0)
(-0.00857791 7.22795e-05 0)
(-0.00862333 8.23502e-05 0)
(-0.00867473 9.2067e-05 0)
(-0.00873195 0.000101509 0)
(-0.00879481 0.000110758 0)
(-0.00886321 0.000119873 0)
(-0.00893707 0.000128908 0)
(-0.00901634 0.000137908 0)
(-0.00910099 0.000146935 0)
(-0.00919105 0.000156018 0)
(-0.00928652 0.000165208 0)
(-0.00938746 0.00017454 0)
(-0.00949394 0.000184052 0)
(-0.00960607 0.000193782 0)
(-0.00972395 0.000203772 0)
(-0.00984774 0.000214058 0)
(-0.00997758 0.000224681 0)
(-0.0101137 0.000235681 0)
(-0.0102562 0.0002471 0)
(-0.0104055 0.000258974 0)
(-0.0105617 0.000271356 0)
(-0.010725 0.000284293 0)
(-0.010896 0.000297828 0)
(-0.0110747 0.000312021 0)
(-0.0112618 0.000326917 0)
(-0.0114575 0.000342585 0)
(-0.0116624 0.000359088 0)
(-0.0118768 0.000376499 0)
(-0.0121013 0.000394894 0)
(-0.0123365 0.000414351 0)
(-0.0125829 0.000434972 0)
(-0.0128413 0.000456847 0)
(-0.0131124 0.000480081 0)
(-0.013397 0.000504796 0)
(-0.0136959 0.000531112 0)
(-0.0140101 0.000559166 0)
(-0.0143405 0.000589112 0)
(-0.0146885 0.000621119 0)
(-0.015055 0.000655355 0)
(-0.0154415 0.000692029 0)
(-0.0158495 0.000731373 0)
(-0.0162805 0.000773632 0)
(-0.0167363 0.000819033 0)
(-0.017219 0.000867931 0)
(-0.0177305 0.000920616 0)
(-0.0182733 0.000977539 0)
(-0.0188502 0.00103903 0)
(-0.0194637 0.00110559 0)
(-0.0201175 0.00117779 0)
(-0.0208151 0.00125617 0)
(-0.0215606 0.00134148 0)
(-0.0223588 0.00143452 0)
(-0.023215 0.00153622 0)
(-0.0241351 0.0016477 0)
(-0.0251265 0.00177045 0)
(-0.0261973 0.0019061 0)
(-0.0273576 0.00205687 0)
(-0.0286194 0.00222552 0)
(-0.0299975 0.00241575 0)
(-0.0315108 0.00263248 0)
(-0.0331829 0.00288191 0)
(-0.0350434 0.00317304 0)
(-0.0371291 0.00351408 0)
(-0.0394819 0.00391064 0)
(-0.0421382 0.00436001 0)
(-0.0451168 0.00484274 0)
(-0.0483972 0.00531231 0)
(-0.0519006 0.0056916 0)
(-0.055481 0.00588196 0)
(-0.0589378 0.00578333 0)
(-0.0620446 0.00532829 0)
(-0.0645872 0.0045002 0)
(-0.0664002 0.00334336 0)
(-0.0673944 0.00195189 0)
(-0.067539 0.000410555 0)
(-0.0668807 -0.00116953 0)
(-0.0655232 -0.00264462 0)
(-0.0636861 -0.00389359 0)
(-0.0615733 -0.00485597 0)
(-0.0593493 -0.00551584 0)
(-0.0571383 -0.00588795 0)
(-0.0550339 -0.00600021 0)
(-0.0531081 -0.00588312 0)
(-0.0514218 -0.00556131 0)
(-0.0500343 -0.00505817 0)
(-0.0490086 -0.00439691 0)
(-0.0484184 -0.00359732 0)
(-0.0483438 -0.0026525 0)
(-0.0488849 -0.00152138 0)
(-0.0503008 -0.000167522 0)
(-0.0526858 0.00134414 0)
(-0.0556431 0.00284723 0)
(-0.0590986 0.00420928 0)
(-0.0629958 0.00536967 0)
(-0.0672899 0.00630438 0)
(-0.0719272 0.00701728 0)
(-0.076829 0.00753098 0)
(-0.0818944 0.00787251 0)
(-0.0870062 0.00806769 0)
(-0.0920431 0.00813798 0)
(-0.0968967 0.00809428 0)
(-0.101476 0.0079407 0)
(-0.105715 0.00767676 0)
(-0.109568 0.00730061 0)
(-0.113016 0.00681682 0)
(-0.116049 0.0062383 0)
(-0.118674 0.00558722 0)
(-0.120909 0.00489218 0)
(-0.122779 0.00418632 0)
(-0.124315 0.00349918 0)
(-0.125556 0.00285959 0)
(-0.126543 0.00229089 0)
(-0.127321 0.00181016 0)
(-0.12794 0.00142826 0)
(-0.128445 0.00115171 0)
(-0.12888 0.000983621 0)
(-0.129285 0.000921151 0)
(-0.129698 0.000961398 0)
(-0.13015 0.00109941 0)
(-0.13067 0.00132742 0)
(-0.131284 0.00163737 0)
(-0.132012 0.0020198 0)
(-0.132869 0.00246468 0)
(-0.133864 0.00296225 0)
(-0.135007 0.0035007 0)
(-0.136296 0.00406701 0)
(-0.137731 0.00464981 0)
(-0.139303 0.00523746 0)
(-0.141001 0.00581737 0)
(-0.142811 0.00637834 0)
(-0.144714 0.00690961 0)
(-0.14669 0.00740169 0)
(-0.148717 0.00784659 0)
(-0.150773 0.00823776 0)
(-0.152834 0.00857034 0)
(-0.154877 0.00884026 0)
(-0.156877 0.00904485 0)
(-0.158813 0.00918393 0)
(-0.160665 0.0092574 0)
(-0.162414 0.00926604 0)
(-0.164039 0.00920985 0)
(-0.165529 0.00908947 0)
(-0.166866 0.0089046 0)
(-0.168036 0.00865197 0)
(-0.169027 0.00832635 0)
(-0.169822 0.00791991 0)
(-0.170404 0.00741838 0)
(-0.170749 0.0068057 0)
(-0.170831 0.00605789 0)
(-0.170623 0.00514291 0)
(-0.1701 0.00401749 0)
(-0.169218 0.00260811 0)
(-0.167875 0.000770038 0)
(-0.165982 -0.00161174 0)
(-0.163545 -0.00461715 0)
(-0.160223 -0.00842496 0)
(-0.155619 -0.0132352 0)
(-0.149557 -0.0191172 0)
(-0.142685 -0.0272058 0)
(-0.131486 -0.0361977 0)
(-0.116613 -0.0449134 0)
(-0.100379 -0.0541377 0)
(-0.0813563 -0.0620948 0)
(-0.06032 -0.0661107 0)
(-0.0382983 -0.0606409 0)
(-0.0176506 -0.0368335 0)
(0.00640758 0.0137859 0)
(-0.00639967 0.0423586 0)
(-0.0115032 0.0129023 0)
(-0.0144757 -0.00102526 0)
(-0.0153678 -0.00462732 0)
(-0.0153467 -0.00481113 0)
(-0.0149594 -0.00414589 0)
(-0.0144536 -0.00340034 0)
(-0.0139295 -0.00275937 0)
(-0.0134299 -0.00224474 0)
(-0.0129719 -0.00183735 0)
(-0.0125602 -0.00151444 0)
(-0.0121947 -0.00125643 0)
(-0.0118729 -0.00104823 0)
(-0.0115909 -0.000878365 0)
(-0.011345 -0.000738305 0)
(-0.0111311 -0.000621591 0)
(-0.0109461 -0.000523339 0)
(-0.0107866 -0.000439828 0)
(-0.01065 -0.00036818 0)
(-0.0105337 -0.000306172 0)
(-0.010436 -0.000252055 0)
(-0.0103548 -0.000204431 0)
(-0.0102885 -0.000162197 0)
(-0.0102359 -0.000124453 0)
(-0.0101959 -9.04687e-05 0)
(-0.0101673 -5.96406e-05 0)
(-0.0101492 -3.144e-05 0)
(-0.0101409 -5.46494e-06 0)
(-0.0101414 1.83789e-05 0)
(-0.01015 4.02391e-05 0)
(-0.0101665 6.06452e-05 0)
(-0.0101902 7.98011e-05 0)
(-0.0102211 9.79073e-05 0)
(-0.0102588 0.000115146 0)
(-0.010303 0.000131678 0)
(-0.0103537 0.00014765 0)
(-0.0104106 0.000163186 0)
(-0.0104735 0.000178396 0)
(-0.0105425 0.000193374 0)
(-0.0106173 0.00020821 0)
(-0.0106981 0.00022298 0)
(-0.0107846 0.000237767 0)
(-0.0108771 0.000252626 0)
(-0.0109754 0.000267633 0)
(-0.0110797 0.00028285 0)
(-0.01119 0.000298334 0)
(-0.0113064 0.000314152 0)
(-0.0114291 0.000330364 0)
(-0.0115583 0.000347031 0)
(-0.0116939 0.000364216 0)
(-0.0118364 0.000381982 0)
(-0.0119859 0.0004004 0)
(-0.0121427 0.000419537 0)
(-0.0123068 0.000439459 0)
(-0.0124789 0.000460249 0)
(-0.0126592 0.000481985 0)
(-0.012848 0.000504748 0)
(-0.0130456 0.000528635 0)
(-0.0132526 0.000553732 0)
(-0.0134696 0.000580158 0)
(-0.0136969 0.000608016 0)
(-0.013935 0.000637435 0)
(-0.0141847 0.000668544 0)
(-0.0144466 0.000701491 0)
(-0.0147215 0.000736436 0)
(-0.0150099 0.000773549 0)
(-0.0153131 0.000813019 0)
(-0.0156317 0.000855041 0)
(-0.015967 0.000899853 0)
(-0.0163198 0.000947688 0)
(-0.0166916 0.000998851 0)
(-0.0170836 0.00105361 0)
(-0.0174973 0.00111229 0)
(-0.0179345 0.00117529 0)
(-0.0183967 0.00124299 0)
(-0.0188861 0.00131589 0)
(-0.0194047 0.00139446 0)
(-0.019955 0.00147928 0)
(-0.0205398 0.00157101 0)
(-0.0211619 0.00167038 0)
(-0.0218248 0.0017782 0)
(-0.0225322 0.00189544 0)
(-0.0232884 0.00202315 0)
(-0.0240981 0.00216266 0)
(-0.0249671 0.00231544 0)
(-0.0259017 0.00248332 0)
(-0.026909 0.00266841 0)
(-0.0279979 0.00287347 0)
(-0.0291788 0.00310188 0)
(-0.030464 0.00335807 0)
(-0.0318691 0.00364789 0)
(-0.0334135 0.00397921 0)
(-0.0351216 0.00436233 0)
(-0.0370234 0.00481019 0)
(-0.0391571 0.00533822 0)
(-0.0415655 0.0059585 0)
(-0.0442909 0.00667301 0)
(-0.0473596 0.00746049 0)
(-0.0507628 0.00826077 0)
(-0.0544375 0.0089678 0)
(-0.0582515 0.00943641 0)
(-0.0620127 0.00951093 0)
(-0.0654914 0.00906682 0)
(-0.0684611 0.00804988 0)
(-0.0707388 0.00649253 0)
(-0.0722165 0.0045119 0)
(-0.0728858 0.00228955 0)
(-0.0728173 -3.31751e-05 0)
(-0.0721582 -0.00225738 0)
(-0.071108 -0.00415814 0)
(-0.0698734 -0.00562878 0)
(-0.0686047 -0.00665206 0)
(-0.0674092 -0.00725797 0)
(-0.0663623 -0.00749544 0)
(-0.0655224 -0.00741242 0)
(-0.0649428 -0.00704493 0)
(-0.064681 -0.00641482 0)
(-0.0648065 -0.00553221 0)
(-0.0654 -0.00438573 0)
(-0.0665448 -0.00293969 0)
(-0.06833 -0.0011808 0)
(-0.0709389 0.000840738 0)
(-0.0739846 0.00292423 0)
(-0.0771995 0.00488743 0)
(-0.0807066 0.00669719 0)
(-0.0845136 0.00833869 0)
(-0.0885972 0.00976938 0)
(-0.0929126 0.0109459 0)
(-0.0973963 0.0118444 0)
(-0.101969 0.0124623 0)
(-0.106541 0.0128138 0)
(-0.111011 0.0129217 0)
(-0.115281 0.0128095 0)
(-0.119263 0.0124985 0)
(-0.122886 0.0120089 0)
(-0.1261 0.0113572 0)
(-0.128877 0.0105631 0)
(-0.131211 0.00965052 0)
(-0.133117 0.00865038 0)
(-0.134625 0.00759853 0)
(-0.135776 0.00653502 0)
(-0.136619 0.00549907 0)
(-0.137206 0.00452684 0)
(-0.13759 0.0036501 0)
(-0.137824 0.00289371 0)
(-0.137957 0.00227378 0)
(-0.138033 0.00179873 0)
(-0.13809 0.00147098 0)
(-0.138158 0.00128778 0)
(-0.138262 0.00124139 0)
(-0.13842 0.0013233 0)
(-0.138645 0.00152465 0)
(-0.138946 0.00183422 0)
(-0.139331 0.00223943 0)
(-0.139804 0.00272765 0)
(-0.140363 0.00328543 0)
(-0.141009 0.00389632 0)
(-0.141736 0.00454621 0)
(-0.14254 0.00521897 0)
(-0.143409 0.00589941 0)
(-0.144332 0.00657179 0)
(-0.145298 0.00722138 0)
(-0.146289 0.00783544 0)
(-0.147291 0.00840092 0)
(-0.148286 0.00890735 0)
(-0.149257 0.00934549 0)
(-0.150188 0.0097091 0)
(-0.151065 0.00999345 0)
(-0.15187 0.0101961 0)
(-0.152594 0.0103156 0)
(-0.153222 0.0103526 0)
(-0.153748 0.0103087 0)
(-0.154164 0.0101878 0)
(-0.154466 0.00999235 0)
(-0.154649 0.00972401 0)
(-0.154714 0.00938527 0)
(-0.154662 0.00897335 0)
(-0.154493 0.00848326 0)
(-0.154209 0.00790625 0)
(-0.153808 0.00722897 0)
(-0.153289 0.00643378 0)
(-0.152646 0.00549367 0)
(-0.151877 0.00437571 0)
(-0.150982 0.00303063 0)
(-0.149927 0.00133516 0)
(-0.148651 -0.000831557 0)
(-0.147333 -0.00353525 0)
(-0.145744 -0.00695025 0)
(-0.143685 -0.0113058 0)
(-0.140706 -0.0168809 0)
(-0.136479 -0.0241081 0)
(-0.131068 -0.0329466 0)
(-0.123613 -0.0425625 0)
(-0.113482 -0.0552544 0)
(-0.100648 -0.068463 0)
(-0.0848579 -0.0804372 0)
(-0.0664729 -0.0873213 0)
(-0.0459296 -0.0828678 0)
(-0.0250025 -0.0565055 0)
(-0.0022903 0.00543978 0)
(-0.00535977 0.0503271 0)
(-0.0101853 0.0177778 0)
(-0.0132117 0.00111557 0)
(-0.0144542 -0.00402925 0)
(-0.0147759 -0.00483556 0)
(-0.01471 -0.00442117 0)
(-0.0144733 -0.0037694 0)
(-0.0141682 -0.0031532 0)
(-0.0138437 -0.00263011 0)
(-0.0135237 -0.00219871 0)
(-0.0132203 -0.00184505 0)
(-0.0129399 -0.00155423 0)
(-0.0126849 -0.00131358 0)
(-0.0124554 -0.00111292 0)
(-0.0122507 -0.000944255 0)
(-0.0120696 -0.000801319 0)
(-0.0119102 -0.000679189 0)
(-0.011771 -0.000573999 0)
(-0.0116504 -0.000482686 0)
(-0.0115468 -0.00040282 0)
(-0.0114589 -0.000332447 0)
(-0.0113853 -0.000269998 0)
(-0.0113251 -0.00021419 0)
(-0.011277 -0.000163971 0)
(-0.0112404 -0.000118477 0)
(-0.0112144 -7.69989e-05 0)
(-0.0111982 -3.89312e-05 0)
(-0.0111912 -3.83445e-06 0)
(-0.0111928 2.83944e-05 0)
(-0.0112019 5.79508e-05 0)
(-0.0112183 8.57421e-05 0)
(-0.0112418 0.000112038 0)
(-0.0112721 0.000137056 0)
(-0.0113091 0.000161002 0)
(-0.0113526 0.000184064 0)
(-0.0114024 0.000206409 0)
(-0.0114584 0.000228192 0)
(-0.0115205 0.000249543 0)
(-0.0115888 0.000270593 0)
(-0.0116631 0.000291451 0)
(-0.0117433 0.000312229 0)
(-0.0118296 0.000333013 0)
(-0.0119219 0.00035391 0)
(-0.0120203 0.000374998 0)
(-0.0121248 0.00039637 0)
(-0.0122355 0.000418111 0)
(-0.0123526 0.000440303 0)
(-0.0124762 0.000463034 0)
(-0.0126063 0.000486388 0)
(-0.0127432 0.00051045 0)
(-0.0128873 0.000535311 0)
(-0.0130385 0.00056106 0)
(-0.0131973 0.000587804 0)
(-0.0133639 0.000615633 0)
(-0.0135386 0.000644653 0)
(-0.0137218 0.000674979 0)
(-0.0139137 0.000706726 0)
(-0.014115 0.000740027 0)
(-0.0143259 0.00077501 0)
(-0.0145471 0.000811831 0)
(-0.014779 0.000850641 0)
(-0.0150222 0.000891617 0)
(-0.0152774 0.000934942 0)
(-0.0155453 0.000980822 0)
(-0.0158266 0.00102948 0)
(-0.0161222 0.00108115 0)
(-0.0164328 0.00113612 0)
(-0.0167597 0.00119464 0)
(-0.0171036 0.00125708 0)
(-0.0174659 0.00132375 0)
(-0.017848 0.00139507 0)
(-0.0182511 0.00147145 0)
(-0.0186768 0.00155337 0)
(-0.0191269 0.00164135 0)
(-0.0196033 0.001736 0)
(-0.0201078 0.00183803 0)
(-0.0206431 0.0019481 0)
(-0.0212116 0.00206714 0)
(-0.0218161 0.00219599 0)
(-0.0224599 0.00233586 0)
(-0.0231466 0.0024879 0)
(-0.0238803 0.00265359 0)
(-0.0246656 0.00283458 0)
(-0.0255078 0.00303284 0)
(-0.0264128 0.00325068 0)
(-0.0273878 0.00349096 0)
(-0.0284409 0.00375711 0)
(-0.0295817 0.00405344 0)
(-0.030822 0.00438547 0)
(-0.0321756 0.00476046 0)
(-0.0336601 0.00518799 0)
(-0.0352969 0.00568078 0)
(-0.0371136 0.00625502 0)
(-0.0391425 0.00693166 0)
(-0.0414219 0.00772871 0)
(-0.0439936 0.00865881 0)
(-0.0468915 0.00971068 0)
(-0.0501265 0.0108336 0)
(-0.0536694 0.0119166 0)
(-0.0574343 0.0127904 0)
(-0.0612744 0.0132503 0)
(-0.0649931 0.0131015 0)
(-0.0683732 0.0122165 0)
(-0.071221 0.0105745 0)
(-0.0734045 0.00827789 0)
(-0.0748785 0.00553633 0)
(-0.0756971 0.00262741 0)
(-0.0760018 -0.000239744 0)
(-0.0759721 -0.0028092 0)
(-0.0757992 -0.00485813 0)
(-0.0756231 -0.00633049 0)
(-0.0755403 -0.0072542 0)
(-0.0756169 -0.00769125 0)
(-0.0759029 -0.00770566 0)
(-0.0764435 -0.00734713 0)
(-0.0772848 -0.00664481 0)
(-0.0784791 -0.00561081 0)
(-0.0800707 -0.00423726 0)
(-0.0820866 -0.00251838 0)
(-0.0845431 -0.000487735 0)
(-0.0874085 0.00173339 0)
(-0.0902809 0.00395767 0)
(-0.093255 0.00614375 0)
(-0.0964273 0.00828968 0)
(-0.0997896 0.0103401 0)
(-0.103305 0.0122068 0)
(-0.106926 0.0138134 0)
(-0.110601 0.015103 0)
(-0.114268 0.0160417 0)
(-0.117857 0.0166191 0)
(-0.121293 0.0168435 0)
(-0.124497 0.0167378 0)
(-0.127397 0.0163309 0)
(-0.129927 0.0156582 0)
(-0.132041 0.0147568 0)
(-0.133712 0.0136659 0)
(-0.134936 0.0124277 0)
(-0.135729 0.0110859 0)
(-0.136128 0.00968896 0)
(-0.136186 0.00828663 0)
(-0.135969 0.00693052 0)
(-0.135551 0.00566475 0)
(-0.134999 0.00452661 0)
(-0.134381 0.00354117 0)
(-0.133756 0.00272664 0)
(-0.133174 0.00209201 0)
(-0.132673 0.0016363 0)
(-0.132276 0.00135357 0)
(-0.131998 0.00123324 0)
(-0.131841 0.0012614 0)
(-0.131797 0.00142418 0)
(-0.131855 0.00170624 0)
(-0.132006 0.00209476 0)
(-0.132239 0.00257558 0)
(-0.132539 0.00313425 0)
(-0.132892 0.00375588 0)
(-0.133287 0.00442286 0)
(-0.133708 0.00511871 0)
(-0.134144 0.00582749 0)
(-0.134581 0.00653178 0)
(-0.135006 0.0072147 0)
(-0.135404 0.00786132 0)
(-0.135762 0.00845812 0)
(-0.136069 0.00899264 0)
(-0.136311 0.00945408 0)
(-0.136478 0.00983389 0)
(-0.136561 0.0101272 0)
(-0.136553 0.0103308 0)
(-0.136448 0.010444 0)
(-0.136243 0.0104668 0)
(-0.135935 0.0104028 0)
(-0.135526 0.0102551 0)
(-0.135019 0.01003 0)
(-0.134417 0.00973216 0)
(-0.133729 0.00936529 0)
(-0.132963 0.0089315 0)
(-0.132132 0.00843011 0)
(-0.131245 0.00785619 0)
(-0.130314 0.0072005 0)
(-0.129351 0.00645072 0)
(-0.128369 0.00558738 0)
(-0.12738 0.00458656 0)
(-0.126401 0.00341585 0)
(-0.125441 0.00201421 0)
(-0.124481 0.000241796 0)
(-0.123631 -0.00197995 0)
(-0.122879 -0.00482493 0)
(-0.122085 -0.00854287 0)
(-0.12116 -0.0133428 0)
(-0.120016 -0.0194805 0)
(-0.118244 -0.0275872 0)
(-0.115464 -0.0378949 0)
(-0.111186 -0.0502501 0)
(-0.104886 -0.0647799 0)
(-0.0960551 -0.0805608 0)
(-0.0839279 -0.095561 0)
(-0.0684687 -0.105695 0)
(-0.0496646 -0.103943 0)
(-0.0286425 -0.0782626 0)
(-0.00847568 -0.0137471 0)
(-0.00457932 0.0572313 0)
(-0.00920868 0.0223551 0)
(-0.0122122 0.0032631 0)
(-0.0135623 -0.00317865 0)
(-0.014085 -0.00459699 0)
(-0.0142176 -0.00445727 0)
(-0.0141625 -0.00393097 0)
(-0.0140161 -0.00337106 0)
(-0.0138258 -0.00286885 0)
(-0.0136181 -0.00243908 0)
(-0.0134076 -0.00207624 0)
(-0.0132032 -0.00177033 0)
(-0.0130104 -0.0015116 0)
(-0.0128319 -0.00129169 0)
(-0.0126691 -0.00110369 0)
(-0.0125223 -0.000941968 0)
(-0.0123911 -0.000801948 0)
(-0.0122752 -0.000679917 0)
(-0.0121736 -0.000572865 0)
(-0.0120858 -0.000478339 0)
(-0.0120109 -0.000394329 0)
(-0.0119481 -0.000319189 0)
(-0.0118967 -0.000251555 0)
(-0.011856 -0.000190299 0)
(-0.0118252 -0.000134477 0)
(-0.0118041 -8.33053e-05 0)
(-0.011792 -3.6135e-05 0)
(-0.0117883 7.50384e-06 0)
(-0.0117926 4.7616e-05 0)
(-0.0118039 8.43084e-05 0)
(-0.0118221 0.000119004 0)
(-0.0118468 0.000152035 0)
(-0.011878 0.000183649 0)
(-0.0119155 0.000214063 0)
(-0.0119593 0.000243479 0)
(-0.0120092 0.000272077 0)
(-0.0120652 0.000300033 0)
(-0.0121271 0.000327501 0)
(-0.0121951 0.000354626 0)
(-0.012269 0.000381537 0)
(-0.0123489 0.00040837 0)
(-0.0124348 0.000435234 0)
(-0.0125266 0.000462259 0)
(-0.0126245 0.000489543 0)
(-0.0127286 0.000517197 0)
(-0.012839 0.000545331 0)
(-0.0129557 0.000574054 0)
(-0.0130789 0.000603472 0)
(-0.0132088 0.000633692 0)
(-0.0133456 0.000664821 0)
(-0.0134895 0.000696978 0)
(-0.0136408 0.000730279 0)
(-0.0137996 0.000764854 0)
(-0.0139664 0.000800827 0)
(-0.0141413 0.00083833 0)
(-0.0143249 0.000877516 0)
(-0.0145174 0.000918528 0)
(-0.0147193 0.000961539 0)
(-0.0149309 0.00100672 0)
(-0.015153 0.00105427 0)
(-0.015386 0.00110438 0)
(-0.0156304 0.00115728 0)
(-0.015887 0.00121321 0)
(-0.0161565 0.00127244 0)
(-0.0164394 0.00133526 0)
(-0.0167369 0.00140196 0)
(-0.0170497 0.00147294 0)
(-0.0173789 0.0015485 0)
(-0.0177254 0.00162911 0)
(-0.0180907 0.00171525 0)
(-0.0184758 0.00180741 0)
(-0.0188823 0.00190614 0)
(-0.0193118 0.00201209 0)
(-0.0197659 0.00212593 0)
(-0.0202468 0.00224853 0)
(-0.0207564 0.00238068 0)
(-0.0212971 0.00252345 0)
(-0.0218715 0.00267795 0)
(-0.0224826 0.00284543 0)
(-0.0231338 0.00302735 0)
(-0.0238287 0.00322546 0)
(-0.0245714 0.00344169 0)
(-0.0253669 0.00367832 0)
(-0.0262203 0.00393807 0)
(-0.0271382 0.00422417 0)
(-0.0281276 0.00454057 0)
(-0.0291971 0.00489211 0)
(-0.0303567 0.00528486 0)
(-0.0316181 0.00572657 0)
(-0.0329959 0.00622754 0)
(-0.0345076 0.00680111 0)
(-0.0361748 0.00746478 0)
(-0.0380228 0.00824013 0)
(-0.0400832 0.00915367 0)
(-0.0423905 0.0102252 0)
(-0.0449783 0.0114621 0)
(-0.0478713 0.0128381 0)
(-0.0510728 0.0142688 0)
(-0.0545494 0.0155962 0)
(-0.0582185 0.0165961 0)
(-0.0619485 0.017015 0)
(-0.0655703 0.0166351 0)
(-0.0689049 0.0153366 0)
(-0.0718011 0.0131429 0)
(-0.07417 0.0102317 0)
(-0.0760071 0.00690149 0)
(-0.0773843 0.00351244 0)
(-0.078449 0.000334774 0)
(-0.0793414 -0.00237818 0)
(-0.0801939 -0.0044334 0)
(-0.0810981 -0.00581482 0)
(-0.0821197 -0.00658292 0)
(-0.0833067 -0.00681542 0)