/*--------------------------------*- C++ -*----------------------------------*\
  =========                 |
  \\      /  F ield         | OpenFOAM: The Open Source CFD Toolbox
   \\    /   O peration     | Website:  https://openfoam.org
    \\  /    A nd           | Version:  11
     \\/     M anipulation  |
\*---------------------------------------------------------------------------*/
FoamFile
{
    format      ascii;
    class       surfaceScalarField;
    location    "4";
    object      phi;
}
// * * * * * * * * * * * * * * * * * * * * * * * * * * * * * * * * * * * * * //

dimensions      [1 0 -1 0 0 0 0];

internalField   nonuniform List<scalar> 
79600
(
-9.16758e-06
9.16708e-06
-9.70964e-06
5.41481e-07
-7.93857e-06
-1.77159e-06
-6.11621e-06
-1.8228e-06
-4.68317e-06
-1.43342e-06
-3.62324e-06
-1.06029e-06
-2.83934e-06
-7.84238e-07
-2.24919e-06
-5.90464e-07
-1.79679e-06
-4.527e-07
-1.44676e-06
-3.50304e-07
-1.17694e-06
-2.70102e-07
-9.72199e-07
-2.04999e-07
-8.20936e-07
-1.51519e-07
-7.12785e-07
-1.08399e-07
-6.38423e-07
-7.4606e-08
-5.89428e-07
-4.9237e-08
-5.58696e-07
-3.09727e-08
-5.41043e-07
-1.78943e-08
-5.32417e-07
-8.86866e-09
-5.29817e-07
-2.84456e-09
-5.31267e-07
1.20614e-09
-5.35332e-07
3.82137e-09
-5.41526e-07
5.94952e-09
-5.49473e-07
7.7032e-09
-5.58513e-07
8.79542e-09
-5.68189e-07
9.43225e-09
-5.78244e-07
9.81015e-09
-5.88513e-07
1.00253e-08
-5.98909e-07
1.01522e-08
-6.09378e-07
1.02251e-08
-6.1987e-07
1.02481e-08
-6.30315e-07
1.02013e-08
-6.40651e-07
1.00926e-08
-6.50851e-07
9.95653e-09
-6.60985e-07
9.89119e-09
-6.71134e-07
9.90567e-09
-6.8098e-07
9.60301e-09
-6.90428e-07
9.20522e-09
-6.99553e-07
8.88195e-09
-7.08423e-07
8.62707e-09
-7.17033e-07
8.36684e-09
-7.25333e-07
8.05665e-09
-7.33292e-07
7.71624e-09
-7.40894e-07
7.35986e-09
-7.48149e-07
7.01153e-09
-7.55102e-07
6.71086e-09
-7.61811e-07
6.46607e-09
-7.68285e-07
6.23136e-09
-7.74499e-07
5.97115e-09
-7.80468e-07
5.72594e-09
-7.86293e-07
5.58165e-09
-7.92097e-07
5.56118e-09
-7.97928e-07
5.58866e-09
-8.03761e-07
5.59051e-09
-8.09609e-07
5.6044e-09
-8.15595e-07
5.74398e-09
-8.21893e-07
6.055e-09
-8.2857e-07
6.4335e-09
-8.35531e-07
6.71849e-09
-8.42659e-07
6.88476e-09
-8.5e-07
7.09821e-09
-8.57746e-07
7.50286e-09
-8.65943e-07
7.95317e-09
-8.74287e-07
8.10036e-09
-8.82393e-07
7.86291e-09
-8.90353e-07
7.71716e-09
-8.9836e-07
7.76402e-09
-9.0669e-07
8.08718e-09
-9.1537e-07
8.43566e-09
-9.23773e-07
8.16001e-09
-9.31527e-07
7.51078e-09
-9.38942e-07
7.17301e-09
-9.46233e-07
7.04697e-09
-9.53274e-07
6.79855e-09
-9.60283e-07
6.76536e-09
-9.67565e-07
7.03798e-09
-9.75137e-07
7.3281e-09
-9.82824e-07
7.44288e-09
-9.90619e-07
7.55123e-09
-9.98256e-07
7.39325e-09
-1.00555e-06
7.04784e-09
-1.01283e-06
7.04745e-09
-1.02035e-06
7.27359e-09
-1.02807e-06
7.47785e-09
-1.03581e-06
7.50771e-09
-1.04342e-06
7.36855e-09
-1.05076e-06
7.09038e-09
-1.05761e-06
6.60826e-09
-1.0643e-06
6.44932e-09
-1.07129e-06
6.74196e-09
-1.07855e-06
7.01763e-09
-1.08611e-06
7.31506e-09
-1.09409e-06
7.74081e-09
-1.10225e-06
7.91476e-09
-1.11042e-06
7.92931e-09
-1.11838e-06
7.72248e-09
-1.12597e-06
7.34319e-09
-1.13303e-06
6.81659e-09
-1.13995e-06
6.6792e-09
-1.1472e-06
7.01051e-09
-1.15476e-06
7.31089e-09
-1.16263e-06
7.62521e-09
-1.17098e-06
8.10993e-09
-1.17967e-06
8.44073e-09
-1.18855e-06
8.64839e-09
-1.19732e-06
8.52823e-09
-1.20571e-06
8.14799e-09
-1.21378e-06
7.82373e-09
-1.22175e-06
7.72783e-09
-1.22967e-06
7.67954e-09
-1.23778e-06
7.86321e-09
-1.24631e-06
8.28505e-09
-1.25533e-06
8.77809e-09
-1.26486e-06
9.29242e-09
-1.2751e-06
9.99655e-09
-1.28592e-06
1.05785e-08
-1.29699e-06
1.08235e-08
-1.30794e-06
1.07175e-08
-1.31857e-06
1.03821e-08
-1.32886e-06
1.00474e-08
-1.33907e-06
9.97005e-09
-1.34948e-06
1.01695e-08
-1.36005e-06
1.03307e-08
-1.37083e-06
1.05289e-08
-1.38186e-06
1.07886e-08
-1.39332e-06
1.12215e-08
-1.40565e-06
1.20821e-08
-1.419e-06
1.31092e-08
-1.43332e-06
1.40805e-08
-1.44846e-06
1.49011e-08
-1.46423e-06
1.55256e-08
-1.4804e-06
1.59283e-08
-1.49675e-06
1.61124e-08
-1.51313e-06
1.61342e-08
-1.52949e-06
1.61216e-08
-1.54595e-06
1.62224e-08
-1.56261e-06
1.64189e-08
-1.57939e-06
1.65338e-08
-1.59643e-06
1.67981e-08
-1.61385e-06
1.71718e-08
-1.63148e-06
1.73897e-08
-1.64938e-06
1.76561e-08
-1.66776e-06
1.81394e-08
-1.6869e-06
1.88916e-08
-1.70703e-06
1.98868e-08
-1.72829e-06
2.10247e-08
-1.75073e-06
2.2197e-08
-1.77437e-06
2.33928e-08
-1.79925e-06
2.46331e-08
-1.82547e-06
2.59802e-08
-1.85322e-06
2.75113e-08
-1.88267e-06
2.91986e-08
-1.91385e-06
3.09379e-08
-1.9467e-06
3.2605e-08
-1.98119e-06
3.42485e-08
-2.01762e-06
3.61878e-08
-2.05651e-06
3.86384e-08
-2.09815e-06
4.13985e-08
-2.14275e-06
4.43594e-08
-2.19054e-06
4.75414e-08
-2.24179e-06
5.1005e-08
-2.29683e-06
5.47983e-08
-2.35603e-06
5.89524e-08
-2.41976e-06
6.34818e-08
-2.48839e-06
6.83907e-08
-2.56233e-06
7.36954e-08
-2.64206e-06
7.94815e-08
-2.72825e-06
8.59451e-08
-2.82175e-06
9.32455e-08
-2.92339e-06
1.01394e-07
-3.03423e-06
1.10599e-07
-3.1556e-06
1.21124e-07
-3.28891e-06
1.33059e-07
-3.43599e-06
1.46836e-07
-3.5994e-06
1.63168e-07
-3.78242e-06
1.82771e-07
-3.98922e-06
2.06554e-07
-4.22576e-06
2.36285e-07
-4.50123e-06
2.75217e-07
-4.83048e-06
3.28978e-07
-5.23776e-06
4.06953e-07
-5.7622e-06
5.23975e-07
-6.4633e-06
7.00243e-07
-7.41983e-06
9.54674e-07
-8.71028e-06
1.28625e-06
-1.03697e-05
1.65068e-06
-1.23449e-05
1.9596e-06
-1.4494e-05
2.1261e-06
-1.66607e-05
2.13859e-06
-1.87696e-05
2.07991e-06
-2.0844e-05
2.04858e-06
-2.29293e-05
2.06473e-06
-2.49838e-05
2.03934e-06
-2.68057e-05
1.81119e-06
-2.79915e-05
1.1783e-06
-2.77999e-05
-1.96716e-07
-2.54911e-05
-2.31237e-06
-2.00439e-05
-5.45004e-06
-1.09002e-05
-9.14612e-06
-1.09022e-05
-7.35736e-06
1.65239e-05
-1.00493e-05
3.23282e-06
-9.8265e-06
-1.99481e-06
-8.76532e-06
-2.88435e-06
-7.61268e-06
-2.58638e-06
-6.56979e-06
-2.10349e-06
-5.67026e-06
-1.68407e-06
-4.90303e-06
-1.35798e-06
-4.25015e-06
-1.10586e-06
-3.6961e-06
-9.04631e-07
-3.22901e-06
-7.37463e-07
-2.83992e-06
-5.94347e-07
-2.52136e-06
-4.70345e-07
-2.26628e-06
-3.63728e-07
-2.0673e-06
-2.73841e-07
-1.91643e-06
-2.00364e-07
-1.80543e-06
-1.42218e-07
-1.72626e-06
-9.73145e-08
-1.67181e-06
-6.35664e-08
-1.63615e-06
-3.87585e-08
-1.61437e-06
-2.0826e-08
-1.60294e-06
-7.86251e-09
-1.59941e-06
2.16597e-09
-1.60164e-06
9.68088e-09
-1.60755e-06
1.44557e-08
-1.61589e-06
1.75177e-08
-1.62585e-06
1.95159e-08
-1.63685e-06
2.07733e-08
-1.64856e-06
2.16016e-08
-1.6607e-06
2.21174e-08
-1.6731e-06
2.23916e-08
-1.6856e-06
2.24556e-08
-1.6981e-06
2.23377e-08
-1.71044e-06
2.20403e-08
-1.72244e-06
2.16369e-08
-1.73397e-06
2.11857e-08
-1.74496e-06
2.03392e-08
-1.75543e-06
1.94171e-08
-1.76545e-06
1.86498e-08
-1.77507e-06
1.79974e-08
-1.78425e-06
1.72865e-08
-1.79286e-06
1.64121e-08
-1.80083e-06
1.54381e-08
-1.80816e-06
1.44315e-08
-1.81487e-06
1.34673e-08
-1.82103e-06
1.26196e-08
-1.8267e-06
1.18838e-08
-1.8319e-06
1.11729e-08
-1.83663e-06
1.04468e-08
-1.84097e-06
9.8098e-09
-1.84506e-06
9.42161e-09
-1.84905e-06
9.30291e-09
-1.85302e-06
9.30372e-09
-1.857e-06
9.317e-09
-1.8611e-06
9.44262e-09
-1.8655e-06
9.89123e-09
-1.87041e-06
1.07086e-08
-1.87586e-06
1.16371e-08
-1.88175e-06
1.23493e-08
-1.88794e-06
1.2825e-08
-1.89454e-06
1.34407e-08
-1.90178e-06
1.44925e-08
-1.90975e-06
1.56657e-08
-1.91823e-06
1.63262e-08
-1.92691e-06
1.62898e-08
-1.93561e-06
1.61673e-08
-1.94434e-06
1.62398e-08
-1.95319e-06
1.66792e-08
-1.96208e-06
1.7076e-08
-1.97071e-06
1.65398e-08
-1.9788e-06
1.53399e-08
-1.98621e-06
1.4337e-08
-1.99296e-06
1.3537e-08
-1.99919e-06
1.27801e-08
-2.00534e-06
1.26527e-08
-2.01181e-06
1.32563e-08
-2.01878e-06
1.40469e-08
-2.02617e-06
1.45776e-08
-2.03378e-06
1.49052e-08
-2.04142e-06
1.4778e-08
-2.04907e-06
1.44452e-08
-2.05681e-06
1.45419e-08
-2.06479e-06
1.49983e-08
-2.07297e-06
1.54076e-08
-2.08109e-06
1.53744e-08
-2.08872e-06
1.47477e-08
-2.09551e-06
1.36227e-08
-2.10148e-06
1.2331e-08
-2.10704e-06
1.17563e-08
-2.11274e-06
1.21856e-08
-2.11906e-06
1.30779e-08
-2.12634e-06
1.4348e-08
-2.1347e-06
1.58473e-08
-2.14382e-06
1.67754e-08
-2.15299e-06
1.68498e-08
-2.16154e-06
1.60163e-08
-2.16904e-06
1.45966e-08
-2.17562e-06
1.31421e-08
-2.18177e-06
1.25724e-08
-2.18809e-06
1.30765e-08
-2.19505e-06
1.40217e-08
-2.20301e-06
1.5329e-08
-2.21212e-06
1.69626e-08
-2.22217e-06
1.82412e-08
-2.23261e-06
1.88394e-08
-2.24287e-06
1.85284e-08
-2.25252e-06
1.75445e-08
-2.26142e-06
1.64756e-08
-2.26973e-06
1.57855e-08
-2.2779e-06
1.55963e-08
-2.28645e-06
1.6161e-08
-2.29585e-06
1.7432e-08
-2.30644e-06
1.91144e-08
-2.31837e-06
2.09666e-08
-2.33148e-06
2.28528e-08
-2.34543e-06
2.42809e-08
-2.35979e-06
2.49251e-08
-2.37411e-06
2.47815e-08
-2.38808e-06
2.41037e-08
-2.40161e-06
2.33229e-08
-2.41478e-06
2.28887e-08
-2.42782e-06
2.29597e-08
-2.44112e-06
2.33744e-08
-2.45504e-06
2.41991e-08
-2.46996e-06
2.54537e-08
-2.48622e-06
2.72277e-08
-2.50401e-06
2.96148e-08
-2.5234e-06
3.225e-08
-2.54434e-06
3.477e-08
-2.56665e-06
3.69546e-08
-2.59006e-06
3.86795e-08
-2.61427e-06
3.98849e-08
-2.63899e-06
4.05806e-08
-2.66398e-06
4.08674e-08
-2.68906e-06
4.09499e-08
-2.71415e-06
4.10602e-08
-2.73924e-06
4.12627e-08
-2.76451e-06
4.15459e-08
-2.79012e-06
4.21549e-08
-2.81621e-06
4.301e-08
-2.84286e-06
4.37895e-08
-2.87028e-06
4.48135e-08
-2.89878e-06
4.63845e-08
-2.92877e-06
4.86323e-08
-2.96065e-06
5.15128e-08
-2.99465e-06
5.47731e-08
-3.03084e-06
5.81248e-08
-3.06924e-06
6.15428e-08
-3.10994e-06
6.50789e-08
-3.15311e-06
6.88961e-08
-3.19907e-06
7.32103e-08
-3.24809e-06
7.79689e-08
-3.30037e-06
8.2962e-08
-3.35599e-06
8.79666e-08
-3.41514e-06
9.31474e-08
-3.47831e-06
9.91017e-08
-3.54605e-06
1.06118e-07
-3.61879e-06
1.13883e-07
-3.69693e-06
1.22246e-07
-3.78092e-06
1.3128e-07
-3.87131e-06
1.41137e-07
-3.96869e-06
1.51929e-07
-4.07373e-06
1.63734e-07
-4.18711e-06
1.76608e-07
-4.30958e-06
1.90601e-07
-4.44194e-06
2.05799e-07
-4.58514e-06
2.22433e-07
-4.74042e-06
2.40964e-07
-4.90928e-06
2.61847e-07
-5.09334e-06
2.85196e-07
-5.29444e-06
3.11445e-07
-5.5147e-06
3.41127e-07
-5.75656e-06
3.74655e-07
-6.02298e-06
4.12998e-07
-6.31764e-06
4.57566e-07
-6.64489e-06
5.09769e-07
-7.01e-06
5.71401e-07
-7.41963e-06
6.45644e-07
-7.8827e-06
7.38013e-07
-8.41169e-06
8.57653e-07
-9.02442e-06
1.01928e-06
-9.74659e-06
1.24549e-06
-1.06143e-05
1.56673e-06
-1.16746e-05
2.01228e-06
-1.29805e-05
2.58667e-06
-1.45776e-05
3.23757e-06
-1.64799e-05
3.84492e-06
-1.86454e-05
4.26786e-06
-2.09714e-05
4.43653e-06
-2.33188e-05
4.39909e-06
-2.55515e-05
4.25674e-06
-2.75476e-05
4.04161e-06
-2.91617e-05
3.63952e-06
-3.0153e-05
2.79279e-06
-3.01119e-05
1.13076e-06
-2.86726e-05
-1.64037e-06
-2.52188e-05
-5.76972e-06
-1.91225e-05
-1.15495e-05
-9.9627e-06
-1.83089e-05
-2.0867e-05
-5.9173e-06
2.24405e-05
-8.89952e-06
6.2145e-06
-9.53179e-06
-1.36292e-06
-9.23588e-06
-3.18055e-06
-8.63955e-06
-3.18299e-06
-7.97969e-06
-2.76364e-06
-7.34083e-06
-2.32321e-06
-6.75123e-06
-1.94786e-06
-6.21846e-06
-1.63891e-06
-5.74231e-06
-1.38105e-06
-5.31981e-06
-1.16023e-06
-4.94736e-06
-9.67069e-07
-4.62149e-06
-7.96473e-07
-4.3392e-06
-6.46287e-07
-4.09747e-06
-5.1583e-07
-3.89325e-06
-4.04849e-07
-3.72309e-06
-3.12641e-07
-3.58298e-06
-2.3769e-07
-3.4688e-06
-1.78011e-07
-3.37651e-06
-1.31322e-07
-3.30229e-06
-9.53108e-08
-3.2429e-06
-6.75086e-08
-3.19529e-06
-4.57087e-08
-3.15701e-06
-2.88698e-08
-3.12632e-06
-1.64987e-08
-3.10155e-06
-7.52301e-09
-3.08132e-06
-9.82195e-10
-3.06434e-06
3.52983e-09
-3.04992e-06
6.91104e-09
-3.03746e-06
9.39449e-09
-3.02657e-06
1.12373e-08
-3.01699e-06
1.26048e-08
-3.00847e-06
1.35507e-08
-3.00069e-06
1.39978e-08
-2.99327e-06
1.39493e-08
-2.98595e-06
1.35999e-08
-2.97883e-06
1.29497e-08
-2.97196e-06
1.22831e-08
-2.96536e-06
1.17797e-08
-2.95898e-06
1.13483e-08
-2.95267e-06
1.07155e-08
-2.94626e-06
9.72918e-09
-2.93963e-06
8.54346e-09
-2.93277e-06
7.30711e-09
-2.9257e-06
6.12769e-09
-2.91842e-06
5.07387e-09
-2.91093e-06
4.12847e-09
-2.90325e-06
3.22062e-09
-2.89541e-06
2.34479e-09
-2.88749e-06
1.62322e-09
-2.87952e-06
1.18939e-09
-2.87154e-06
1.04965e-09
-2.86358e-06
1.08375e-09
-2.85577e-06
1.232e-09
-2.84821e-06
1.61479e-09
-2.84099e-06
2.40971e-09
-2.83414e-06
3.58662e-09
-2.82759e-06
4.82014e-09
-2.82127e-06
5.76265e-09
-2.81515e-06
6.44163e-09
-2.80933e-06
7.34912e-09
-2.80395e-06
8.84501e-09
-2.79907e-06
1.05212e-08
-2.79472e-06
1.17128e-08
-2.79089e-06
1.21909e-08
-2.78734e-06
1.23509e-08
-2.7839e-06
1.25265e-08
-2.78038e-06
1.28961e-08
-2.77668e-06
1.31102e-08
-2.77293e-06
1.25173e-08
-2.76909e-06
1.1236e-08
-2.76486e-06
9.84153e-09
-2.76013e-06
8.53357e-09
-2.75513e-06
7.51216e-09
-2.75006e-06
7.31707e-09
-2.74506e-06
7.98754e-09
-2.74026e-06
8.98312e-09
-2.73574e-06
9.78796e-09
-2.73136e-06
1.02586e-08
-2.72713e-06
1.02795e-08
-2.72311e-06
1.01522e-08
-2.71918e-06
1.03488e-08
-2.7153e-06
1.08447e-08
-2.7114e-06
1.12399e-08
-2.70736e-06
1.10673e-08
-2.70298e-06
1.01006e-08
-2.69813e-06
8.50264e-09
-2.69291e-06
6.84539e-09
-2.68743e-06
6.01464e-09
-2.68191e-06
6.38944e-09
-2.67677e-06
7.67055e-09
-2.67229e-06
9.60661e-09
-2.66843e-06
1.17122e-08
-2.66499e-06
1.30719e-08
-2.66159e-06
1.31856e-08
-2.65788e-06
1.20317e-08
-2.65366e-06
1.01085e-08
-2.64904e-06
8.25524e-09
-2.64416e-06
7.42972e-09
-2.63928e-06
7.92496e-09
-2.63486e-06
9.33296e-09
-2.6312e-06
1.14025e-08
-2.62828e-06
1.37705e-08
-2.62595e-06
1.56472e-08
-2.6239e-06
1.65213e-08
-2.62186e-06
1.6225e-08
-2.61966e-06
1.50754e-08
-2.61718e-06
1.37295e-08
-2.61448e-06
1.28133e-08
-2.61185e-06
1.27028e-08
-2.60962e-06
1.36552e-08
-2.60805e-06
1.55949e-08
-2.60739e-06
1.8192e-08
-2.60773e-06
2.10299e-08
-2.60885e-06
2.3708e-08
-2.61055e-06
2.5713e-08
-2.61263e-06
2.6733e-08
-2.6149e-06
2.67867e-08
-2.61724e-06
2.6178e-08
-2.61958e-06
2.53954e-08
-2.62191e-06
2.49428e-08
-2.62432e-06
2.51095e-08
-2.62716e-06
2.59389e-08
-2.63073e-06
2.75001e-08
-2.63534e-06
2.97982e-08
-2.64119e-06
3.28114e-08
-2.64828e-06
3.64358e-08
-2.65659e-06
4.029e-08
-2.66608e-06
4.39925e-08
-2.67667e-06
4.72743e-08
-2.68823e-06
4.99703e-08
-2.70061e-06
5.19992e-08
-2.71367e-06
5.33735e-08
-2.72729e-06
5.42139e-08
-2.74135e-06
5.47402e-08
-2.75575e-06
5.51993e-08
-2.77051e-06
5.57481e-08
-2.78573e-06
5.65007e-08
-2.8015e-06
5.76602e-08
-2.81793e-06
5.91746e-08
-2.8353e-06
6.08837e-08
-2.85383e-06
6.30751e-08
-2.87379e-06
6.60827e-08
-2.89555e-06
7.01211e-08
-2.91948e-06
7.51777e-08
-2.94582e-06
8.08405e-08
-2.9745e-06
8.65428e-08
-3.00552e-06
9.22886e-08
-3.03888e-06
9.81737e-08
-3.07473e-06
1.04478e-07
-3.11345e-06
1.11657e-07
-3.15536e-06
1.1961e-07
-3.20072e-06
1.28053e-07
-3.24975e-06
1.36727e-07
-3.30275e-06
1.45882e-07
-3.36028e-06
1.56365e-07
-3.42269e-06
1.68257e-07
-3.49032e-06
1.81245e-07
-3.56357e-06
1.95223e-07
-3.64292e-06
2.10358e-07
-3.72898e-06
2.26929e-07
-3.82242e-06
2.45105e-07
-3.92396e-06
2.65001e-07
-4.03435e-06
2.86728e-07
-4.15445e-06
3.10422e-07
-4.2852e-06
3.36282e-07
-4.42771e-06
3.64671e-07
-4.58322e-06
3.96204e-07
-4.75318e-06
4.3153e-07
-4.93916e-06
4.70909e-07
-5.14308e-06
5.15085e-07
-5.36726e-06
5.65035e-07
-5.6143e-06
6.21425e-07
-5.88718e-06
6.85596e-07
-6.1894e-06
7.59509e-07
-6.52489e-06
8.44981e-07
-6.8982e-06
9.44435e-07
-7.31466e-06
1.06182e-06
-7.78044e-06
1.2035e-06
-8.30251e-06
1.3794e-06
-8.88819e-06
1.60456e-06
-9.54433e-06
1.90103e-06
-1.02767e-05
2.29802e-06
-1.10911e-05
2.82459e-06
-1.19989e-05
3.4901e-06
-1.30244e-05
4.25502e-06
-1.42055e-05
5.01255e-06
-1.55721e-05
5.61502e-06
-1.71089e-05
5.94941e-06
-1.87352e-05
6.00003e-06
-2.03254e-05
5.82353e-06
-2.17474e-05
5.44445e-06
-2.28732e-05
4.75076e-06
-2.35412e-05
3.45033e-06
-2.35247e-05
1.1069e-06
-2.2527e-05
-2.64345e-06
-2.00613e-05
-8.24007e-06
-1.5387e-05
-1.62282e-05
-7.9817e-06
-2.5718e-05
-2.8851e-05
-5.03767e-06
2.74776e-05
-7.93816e-06
9.11449e-06
-8.97185e-06
-3.29549e-07
-9.112e-06
-3.04066e-06
-8.90372e-06
-3.39154e-06
-8.5675e-06
-3.10012e-06
-8.19386e-06
-2.69712e-06
-7.82112e-06
-2.32087e-06
-7.46544e-06
-1.99486e-06
-7.1328e-06
-1.71397e-06
-6.82437e-06
-1.46893e-06
-6.5393e-06
-1.25242e-06
-6.27621e-06
-1.05984e-06
-6.03401e-06
-8.88764e-07
-5.81202e-06
-7.38098e-07
-5.60987e-06
-6.07274e-07
-5.42725e-06
-4.95531e-07
-5.26363e-06
-4.01585e-07
-5.11814e-06
-3.23774e-07
-4.98951e-06
-2.60225e-07
-4.87619e-06
-2.08911e-07
-4.77636e-06
-1.67607e-07
-4.688e-06
-1.34351e-07
-4.60929e-06
-1.07855e-07
-4.53896e-06
-8.7108e-08
-4.47581e-06
-7.0942e-08
-4.41876e-06
-5.83136e-08
-4.36706e-06
-4.84406e-08
-4.31981e-06
-4.06151e-08
-4.27632e-06
-3.43766e-08
-4.23602e-06
-2.93414e-08
-4.19846e-06
-2.5231e-08
-4.16324e-06
-2.19394e-08
-4.12999e-06
-1.95323e-08
-4.09833e-06
-1.79853e-08
-4.06801e-06
-1.70024e-08
-4.03898e-06
-1.63622e-08
-4.01118e-06
-1.57926e-08
-3.98453e-06
-1.5143e-08
-3.95893e-06
-1.45352e-08
-3.93418e-06
-1.43134e-08
-3.91007e-06
-1.46601e-08
-3.88647e-06
-1.53319e-08
-3.86333e-06
-1.61125e-08
-3.84059e-06
-1.68833e-08
-3.81821e-06
-1.75852e-08
-3.79614e-06
-1.82262e-08
-3.77435e-06
-1.88421e-08
-3.75287e-06
-1.94204e-08
-3.73166e-06
-1.98586e-08
-3.7107e-06
-2.00486e-08
-3.68996e-06
-1.9972e-08
-3.66946e-06
-1.96968e-08
-3.64926e-06
-1.92444e-08
-3.6294e-06
-1.85228e-08
-3.60984e-06
-1.7434e-08
-3.59048e-06
-1.60482e-08
-3.57126e-06
-1.46819e-08
-3.55212e-06
-1.36546e-08
-3.53305e-06
-1.29075e-08
-3.51407e-06
-1.19082e-08
-3.49525e-06
-1.02546e-08
-3.47665e-06
-8.36007e-09
-3.4584e-06
-6.81738e-09
-3.44061e-06
-5.87897e-09
-3.42317e-06
-5.36394e-09
-3.40591e-06
-5.01152e-09
-3.38862e-06
-4.67274e-09
-3.37124e-06
-4.55118e-09
-3.35397e-06
-5.02989e-09
-3.33691e-06
-6.10379e-09
-3.31989e-06
-7.45434e-09
-3.30283e-06
-8.80354e-09
-3.28579e-06
-9.80975e-09
-3.26869e-06
-1.00594e-08
-3.25145e-06
-9.53415e-09
-3.2341e-06
-8.64497e-09
-3.21675e-06
-7.8434e-09
-3.19942e-06
-7.34749e-09
-3.18222e-06
-7.205e-09
-3.16517e-06
-7.1753e-09
-3.14814e-06
-6.95514e-09
-3.13102e-06
-6.55731e-09
-3.11377e-06
-6.29463e-09
-3.09642e-06
-6.55667e-09
-3.07906e-06
-7.53824e-09
-3.06177e-06
-9.07185e-09
-3.04459e-06
-1.0615e-08
-3.02741e-06
-1.14436e-08
-3.01013e-06
-1.11696e-08
-2.99283e-06
-9.90242e-09
-2.97555e-06
-7.95688e-09
-2.9582e-06
-5.91578e-09
-2.94083e-06
-4.57267e-09
-2.92352e-06
-4.40839e-09
-2.90634e-06
-5.42701e-09
-2.88936e-06
-7.14868e-09
-2.8726e-06
-8.78577e-09
-2.85592e-06
-9.5331e-09
-2.83921e-06
-9.05627e-09
-2.82261e-06
-7.54661e-09
-2.80617e-06
-5.32297e-09
-2.7898e-06
-2.88072e-09
-2.77351e-06
-9.17917e-10
-2.75735e-06
7.61841e-11
-2.74143e-06
2.79533e-11
-2.72585e-06
-7.84064e-10
-2.7106e-06
-1.79965e-09
-2.69565e-06
-2.4113e-09
-2.68104e-06
-2.19088e-09
-2.66675e-06
-9.12973e-10
-2.65276e-06
1.32309e-09
-2.63911e-06
4.26601e-09
-2.6258e-06
7.44226e-09
-2.61277e-06
1.03957e-08
-2.60001e-06
1.26693e-08
-2.58756e-06
1.40068e-08
-2.57551e-06
1.44527e-08
-2.56391e-06
1.43038e-08
-2.5528e-06
1.40033e-08
-2.54214e-06
1.40043e-08
-2.53194e-06
1.46246e-08
-2.52228e-06
1.60067e-08
-2.51327e-06
1.82104e-08
-2.505e-06
2.12417e-08
-2.49746e-06
2.49974e-08
-2.49058e-06
2.92771e-08
-2.48432e-06
3.37491e-08
-2.47869e-06
3.8082e-08
-2.47372e-06
4.20179e-08
-2.46943e-06
4.54004e-08
-2.46586e-06
4.8151e-08
-2.46305e-06
5.02851e-08
-2.46104e-06
5.19183e-08
-2.45982e-06
5.32481e-08
-2.45941e-06
5.45008e-08
-2.4598e-06
5.58637e-08
-2.46107e-06
5.74947e-08
-2.46324e-06
5.9548e-08
-2.46638e-06
6.20308e-08
-2.4707e-06
6.49241e-08
-2.47637e-06
6.84712e-08
-2.48356e-06
7.29968e-08
-2.4925e-06
7.87824e-08
-2.50348e-06
8.58716e-08
-2.51668e-06
9.37658e-08
-2.53198e-06
1.0156e-07
-2.54933e-06
1.0936e-07
-2.56874e-06
1.17299e-07
-2.59024e-06
1.25702e-07
-2.61422e-06
1.35354e-07
-2.64096e-06
1.46073e-07
-2.67076e-06
1.57571e-07
-2.70395e-06
1.69628e-07
-2.74085e-06
1.82504e-07
-2.7818e-06
1.97042e-07
-2.82702e-06
2.13191e-07
-2.87673e-06
2.30676e-07
-2.93123e-06
2.49442e-07
-2.99092e-06
2.69771e-07
-3.0564e-06
2.92128e-07
-3.12828e-06
3.16704e-07
-3.20718e-06
3.43622e-07
-3.29379e-06
3.73055e-07
-3.3889e-06
4.05246e-07
-3.49342e-06
4.40518e-07
-3.60835e-06
4.79322e-07
-3.73473e-06
5.22296e-07
-3.87355e-06
5.70063e-07
-4.026e-06
6.23073e-07
-4.19365e-06
6.82446e-07
-4.37873e-06
7.49828e-07
-4.58353e-06
8.25933e-07
-4.81041e-06
9.12189e-07
-5.06203e-06
1.01084e-06
-5.34132e-06
1.12398e-06
-5.6516e-06
1.25442e-06
-5.99643e-06
1.40636e-06
-6.37928e-06
1.58604e-06
-6.80276e-06
1.80257e-06
-7.26727e-06
2.06872e-06
-7.76873e-06
2.40204e-06
-8.29603e-06
2.82462e-06
-8.83073e-06
3.35801e-06
-9.35327e-06
4.01011e-06
-9.858e-06
4.75494e-06
-1.03686e-05
5.51469e-06
-1.09332e-05
6.16674e-06
-1.15899e-05
6.58878e-06
-1.23255e-05
6.71571e-06
-1.30732e-05
6.5513e-06
-1.37571e-05
6.11046e-06
-1.43481e-05
5.32733e-06
-1.48807e-05
3.97184e-06
-1.53592e-05
1.57681e-06
-1.54476e-05
-2.56187e-06
-1.44698e-05
-9.22374e-06
-1.16018e-05
-1.91016e-05
-6.11806e-06
-3.12066e-05
-3.49715e-05
-4.40404e-06
3.1881e-05
-7.1756e-06
1.18856e-05
-8.37745e-06
8.72045e-07
-8.7382e-06
-2.68014e-06
-8.74825e-06
-3.38174e-06
-8.61218e-06
-3.23646e-06
-8.41601e-06
-2.89356e-06
-8.19755e-06
-2.5396e-06
-7.97423e-06
-2.21845e-06
-7.75395e-06
-1.93453e-06
-7.53977e-06
-1.68339e-06
-7.33249e-06
-1.45997e-06
-7.13209e-06
-1.26052e-06
-6.93856e-06
-1.08258e-06
-6.75227e-06
-9.24667e-07
-6.57399e-06
-7.85835e-07
-6.4047e-06
-6.65094e-07
-6.24533e-06
-5.61233e-07
-6.09648e-06
-4.72909e-07
-5.95833e-06
-3.98651e-07
-5.83075e-06
-3.36772e-07
-5.71319e-06
-2.85444e-07
-5.60483e-06
-2.42997e-07
-5.50486e-06
-2.08104e-07
-5.41264e-06
-1.79608e-07
-5.32749e-06
-1.56371e-07
-5.24869e-06
-1.37391e-07
-5.17557e-06
-1.2184e-07
-5.10745e-06
-1.09023e-07
-5.04371e-06
-9.83888e-08
-4.98384e-06
-8.94917e-08
-4.92735e-06
-8.20023e-08
-4.87382e-06
-7.5752e-08
-4.82293e-06
-7.06995e-08
-4.77448e-06
-6.67227e-08
-4.72824e-06
-6.35231e-08
-4.68406e-06
-6.08235e-08
-4.64176e-06
-5.83708e-08
-4.60114e-06
-5.60416e-08
-4.562e-06
-5.3958e-08
-4.52417e-06
-5.24265e-08
-4.48753e-06
-5.15771e-08
-4.452e-06
-5.11447e-08
-4.4175e-06
-5.09029e-08
-4.38392e-06
-5.07388e-08
-4.35119e-06
-5.05987e-08
-4.31923e-06
-5.0476e-08
-4.28798e-06
-5.03717e-08
-4.25742e-06
-5.02596e-08
-4.2275e-06
-5.00606e-08
-4.19814e-06
-4.96982e-08
-4.16924e-06
-4.91485e-08
-4.14079e-06
-4.84303e-08
-4.11278e-06
-4.75406e-08
-4.08516e-06
-4.64226e-08
-4.05784e-06
-4.50449e-08
-4.03066e-06
-4.35078e-08
-4.00356e-06
-4.2065e-08
-3.97655e-06
-4.09502e-08
-3.94966e-06
-4.00767e-08
-3.92288e-06
-3.89745e-08
-3.89609e-06
-3.73185e-08
-3.86927e-06
-3.54645e-08
-3.84251e-06
-3.38648e-08
-3.81594e-06
-3.27288e-08
-3.78959e-06
-3.19876e-08
-3.7634e-06
-3.14832e-08
-3.73723e-06
-3.11245e-08
-3.71105e-06
-3.10183e-08
-3.685e-06
-3.13583e-08
-3.65924e-06
-3.21473e-08
-3.63378e-06
-3.3195e-08
-3.60861e-06
-3.42491e-08
-3.5837e-06
-3.50041e-08
-3.55885e-06
-3.51949e-08
-3.53383e-06
-3.48301e-08
-3.50858e-06
-3.41823e-08
-3.48313e-06
-3.35673e-08
-3.4576e-06
-3.31649e-08
-3.43209e-06
-3.29943e-08
-3.40664e-06
-3.29014e-08
-3.38116e-06
-3.27221e-08
-3.35552e-06
-3.24811e-08
-3.3297e-06
-3.23905e-08
-3.30383e-06
-3.27062e-08
-3.27811e-06
-3.35404e-08
-3.25273e-06
-3.47398e-08
-3.22773e-06
-3.58926e-08
-3.20296e-06
-3.64949e-08
-3.17816e-06
-3.62532e-08
-3.15313e-06
-3.52099e-08
-3.12772e-06
-3.36462e-08
-3.10187e-06
-3.20509e-08
-3.07573e-06
-3.09921e-08
-3.04961e-06
-3.08161e-08
-3.02381e-06
-3.15088e-08
-2.99854e-06
-3.26974e-08
-2.97382e-06
-3.37899e-08
-2.94942e-06
-3.42101e-08
-2.92508e-06
-3.36826e-08
-2.90061e-06
-3.22906e-08
-2.8759e-06
-3.03122e-08
-2.85089e-06
-2.81813e-08
-2.82567e-06
-2.64127e-08
-2.80052e-06
-2.53574e-08
-2.7757e-06
-2.50751e-08
-2.75143e-06
-2.53384e-08
-2.72779e-06
-2.57205e-08
-2.70472e-06
-2.57581e-08
-2.6821e-06
-2.50988e-08
-2.65972e-06
-2.35684e-08
-2.63746e-06
-2.12251e-08
-2.61516e-06
-1.83067e-08
-2.59281e-06
-1.51907e-08
-2.57042e-06
-1.22775e-08
-2.54812e-06
-9.91627e-09
-2.5261e-06
-8.29008e-09
-2.50458e-06
-7.34747e-09
-2.48372e-06
-6.83816e-09
-2.4636e-06
-6.40526e-09
-2.44419e-06
-5.68844e-09
-2.42543e-06
-4.4172e-09
-2.40726e-06
-2.44403e-09
-2.38955e-06
2.1472e-10
-2.37226e-06
3.67902e-09
-2.35534e-06
7.78732e-09
-2.33866e-06
1.23185e-08
-2.32222e-06
1.70234e-08
-2.30607e-06
2.16551e-08
-2.29032e-06
2.59853e-08
-2.27509e-06
2.9888e-08
-2.26053e-06
3.33045e-08
-2.24677e-06
3.62433e-08
-2.23393e-06
3.88028e-08
-2.22212e-06
4.11517e-08
-2.21139e-06
4.34826e-08
-2.20176e-06
4.59614e-08
-2.19329e-06
4.87365e-08
-2.18596e-06
5.19333e-08
-2.17981e-06
5.56073e-08
-2.17499e-06
5.98137e-08
-2.17155e-06
6.47539e-08
-2.16956e-06
7.07215e-08
-2.16906e-06
7.80052e-08
-2.17014e-06
8.66624e-08
-2.17285e-06
9.61943e-08
-2.17726e-06
1.05682e-07
-2.18344e-06
1.15255e-07
-2.19148e-06
1.25055e-07
-2.20146e-06
1.35399e-07
-2.21351e-06
1.47124e-07
-2.2278e-06
1.60084e-07
-2.24461e-06
1.74091e-07
-2.2643e-06
1.89032e-07
-2.28722e-06
2.05144e-07
-2.31344e-06
2.22976e-07
-2.34305e-06
2.42519e-07
-2.37623e-06
2.63567e-07
-2.41313e-06
2.86055e-07
-2.45401e-06
3.10372e-07
-2.49944e-06
3.37267e-07
-2.54993e-06
3.66907e-07
-2.60595e-06
3.99361e-07
-2.66803e-06
4.34845e-07
-2.73676e-06
4.73693e-07
-2.81286e-06
5.16323e-07
-2.89706e-06
5.63235e-07
-2.99007e-06
6.15011e-07
-3.09253e-06
6.72236e-07
-3.20525e-06
7.35502e-07
-3.32929e-06
8.06187e-07
-3.46629e-06
8.86545e-07
-3.61792e-06
9.77269e-07
-3.78572e-06
1.07969e-06
-3.97117e-06
1.19599e-06
-4.17592e-06
1.32843e-06
-4.40175e-06
1.47995e-06
-4.65034e-06
1.65464e-06
-4.92262e-06
1.85802e-06
-5.21789e-06
2.09752e-06
-5.53239e-06
2.38288e-06
-5.85701e-06
2.72629e-06
-6.1747e-06
3.14185e-06
-6.45932e-06
3.64192e-06
-6.67968e-06
4.22922e-06
-6.81181e-06
4.88471e-06
-6.85655e-06
5.55514e-06
-6.84809e-06
6.15122e-06
-6.83717e-06
6.56761e-06
-6.8548e-06
6.72038e-06
-6.88955e-06
6.57173e-06
-6.90928e-06
6.11621e-06
-6.92642e-06
5.33223e-06
-7.08145e-06
4.117e-06
-7.65526e-06
2.14257e-06
-8.64288e-06
-1.58188e-06
-9.14139e-06
-8.73184e-06
-8.0413e-06
-2.0208e-05
-4.39166e-06
-3.48617e-05
-3.93658e-05
-3.92469e-06
3.58051e-05
-6.57304e-06
1.45336e-05
-7.81208e-06
2.11088e-06
-8.27664e-06
-2.21581e-06
-8.39899e-06
-3.25963e-06
-8.3723e-06
-3.26341e-06
-8.27757e-06
-2.98856e-06
-8.15014e-06
-2.66731e-06
-8.00673e-06
-2.36213e-06
-7.85567e-06
-2.08587e-06
-7.70105e-06
-1.83827e-06
-7.54484e-06
-1.61646e-06
-7.38805e-06
-1.41759e-06
-7.23146e-06
-1.23944e-06
-7.07602e-06
-1.08039e-06
-6.92287e-06
-9.39258e-07
-6.77329e-06
-8.14959e-07
-6.62843e-06
-7.06369e-07
-6.48926e-06
-6.12351e-07
-6.35654e-06
-5.31654e-07
-6.23072e-06
-4.62865e-07
-6.11197e-06
-4.04482e-07
-6.00015e-06
-3.55092e-07
-5.89507e-06
-3.1346e-07
-5.79649e-06
-2.78469e-07
-5.70407e-06
-2.49074e-07
-5.61739e-06
-2.24348e-07
-5.53602e-06
-2.03495e-07
-5.45948e-06
-1.85841e-07
-5.38732e-06
-1.70824e-07
-5.31911e-06
-1.57985e-07
-5.25442e-06
-1.46972e-07
-5.1929e-06
-1.37549e-07
-5.13432e-06
-1.29565e-07
-5.07849e-06
-1.2283e-07
-5.02522e-06
-1.1707e-07
-4.97429e-06
-1.12029e-07
-4.92545e-06
-1.0749e-07
-4.87843e-06
-1.03347e-07
-4.83299e-06
-9.96716e-08
-4.78905e-06
-9.66493e-08
-4.74659e-06
-9.43201e-08
-4.70553e-06
-9.24777e-08
-4.66578e-06
-9.09348e-08
-4.62721e-06
-8.95869e-08
-4.58972e-06
-8.8375e-08
-4.5532e-06
-8.72748e-08
-4.51759e-06
-8.62626e-08
-4.48283e-06
-8.53009e-08
-4.44884e-06
-8.43291e-08
-4.41553e-06
-8.32874e-08
-4.38281e-06
-8.215e-08
-4.3506e-06
-8.09119e-08
-4.31886e-06
-7.9561e-08
-4.2875e-06
-7.80691e-08
-4.25639e-06
-7.64367e-08
-4.22542e-06
-7.4755e-08
-4.19457e-06
-7.31933e-08
-4.16391e-06
-7.18884e-08
-4.13351e-06
-7.07599e-08
-4.10328e-06
-6.94841e-08
-4.07301e-06
-6.78695e-08
-4.0426e-06
-6.61516e-08
-4.01212e-06
-6.46265e-08
-3.98169e-06
-6.34427e-08
-3.95137e-06
-6.25849e-08
-3.92116e-06
-6.19741e-08
-3.891e-06
-6.15637e-08
-3.86089e-06
-6.14055e-08
-3.83094e-06
-6.15888e-08
-3.80127e-06
-6.21002e-08
-3.77194e-06
-6.2806e-08
-3.74296e-06
-6.35121e-08
-3.71424e-06
-6.40013e-08
-3.6856e-06
-6.41167e-08
-3.65683e-06
-6.38751e-08
-3.62785e-06
-6.34481e-08
-3.59866e-06
-6.30344e-08
-3.56935e-06
-6.2752e-08
-3.54002e-06
-6.26092e-08
-3.51068e-06
-6.2522e-08
-3.48127e-06
-6.24127e-08
-3.45172e-06
-6.23092e-08
-3.42204e-06
-6.23433e-08
-3.39237e-06
-6.26617e-08
-3.36288e-06
-6.33101e-08
-3.33374e-06
-6.41619e-08
-3.30498e-06
-6.4935e-08
-3.27644e-06
-6.53073e-08
-3.24789e-06
-6.50891e-08
-3.21907e-06
-6.43078e-08
-3.18982e-06
-6.3175e-08
-3.16011e-06
-6.20371e-08
-3.13012e-06
-6.12634e-08
-3.10015e-06
-6.10717e-08
-3.0705e-06
-6.14354e-08
-3.04138e-06
-6.20934e-08
-3.0128e-06
-6.26503e-08
-2.98457e-06
-6.27295e-08
-2.95639e-06
-6.21349e-08
-2.92806e-06
-6.09028e-08
-2.89941e-06
-5.92386e-08
-2.87042e-06
-5.74596e-08
-2.8412e-06
-5.59065e-08
-2.81204e-06
-5.4805e-08
-2.7832e-06
-5.41919e-08
-2.75491e-06
-5.39094e-08
-2.72725e-06
-5.36627e-08
-2.70016e-06
-5.31263e-08
-2.67349e-06
-5.20478e-08
-2.64703e-06
-5.03074e-08
-2.62059e-06
-4.79438e-08
-2.59404e-06
-4.51335e-08
-2.56736e-06
-4.21536e-08
-2.54061e-06
-3.93133e-08
-2.51393e-06
-3.68782e-08
-2.48752e-06
-3.49743e-08
-2.46161e-06
-3.35417e-08
-2.43635e-06
-3.23769e-08
-2.41182e-06
-3.1212e-08
-2.38801e-06
-2.97842e-08
-2.36482e-06
-2.78875e-08
-2.34214e-06
-2.53998e-08
-2.31992e-06
-2.22836e-08
-2.298e-06
-1.85285e-08
-2.27625e-06
-1.42418e-08
-2.25462e-06
-9.58984e-09
-2.23311e-06
-4.76776e-09
-2.21184e-06
1.0555e-10
-2.19089e-06
4.75079e-09
-2.17038e-06
9.09764e-09
-2.15051e-06
1.31519e-08
-2.13145e-06
1.69034e-08
-2.11335e-06
2.0423e-08
-2.09633e-06
2.38487e-08
-2.08047e-06
2.73483e-08
-2.06583e-06
3.10335e-08
-2.05241e-06
3.50438e-08
-2.04024e-06
3.94823e-08
-2.02934e-06
4.44253e-08
-2.01977e-06
4.99635e-08
-2.01156e-06
5.62628e-08
-2.00468e-06
6.35615e-08
-1.99905e-06
7.20886e-08
-1.99453e-06
8.18602e-08
-1.99108e-06
9.2465e-08
-1.98898e-06
1.03304e-07
-1.98846e-06
1.1445e-07
-1.98972e-06
1.26031e-07
-1.99292e-06
1.38321e-07
-1.99796e-06
1.51884e-07
-2.00489e-06
1.66723e-07
-2.01388e-06
1.82805e-07
-2.02526e-06
2.00128e-07
-2.03926e-06
2.18863e-07
-2.05591e-06
2.39344e-07
-2.07527e-06
2.61594e-07
-2.09746e-06
2.85469e-07
-2.12256e-06
3.10867e-07
-2.15068e-06
3.38207e-07
-2.18231e-06
3.68612e-07
-2.21783e-06
4.02145e-07
-2.25756e-06
4.38805e-07
-2.30183e-06
4.78829e-07
-2.35103e-06
5.22605e-07
-2.40559e-06
5.70598e-07
-2.46596e-06
6.23322e-07
-2.53257e-06
6.81334e-07