/*--------------------------------*- C++ -*----------------------------------*\
  =========                 |
  \\      /  F ield         | OpenFOAM: The Open Source CFD Toolbox
   \\    /   O peration     | Website:  https://openfoam.org
    \\  /    A nd           | Version:  11
     \\/     M anipulation  |
\*---------------------------------------------------------------------------*/
FoamFile
{
    format      ascii;
    class       volVectorField;
    location    "4";
    object      U;
}
// * * * * * * * * * * * * * * * * * * * * * * * * * * * * * * * * * * * * * //

dimensions      [0 1 -1 0 0 0 0];

internalField   nonuniform List<vector> 
40000
(
(-0.012005 0.00845821 0)
(-0.0172117 -0.000132649 0)
(-0.0151197 -0.001746 0)
(-0.0118683 -0.00158404 0)
(-0.00902696 -0.00112916 0)
(-0.00691177 -0.0007537 0)
(-0.00537271 -0.000497641 0)
(-0.00423193 -0.000332747 0)
(-0.00336629 -0.000226167 0)
(-0.00269878 -0.000154657 0)
(-0.00218223 -0.000104191 0)
(-0.00178655 -6.75217e-05 0)
(-0.00149002 -4.0904e-05 0)
(-0.0012747 -2.27181e-05 0)
(-0.00112418 -1.11923e-05 0)
(-0.00102324 -4.87687e-06 0)
(-0.000958677 -2.25113e-06 0)
(-0.000919965 -1.29437e-06 0)
(-0.000899275 -1.35e-06 0)
(-0.000890867 -1.89462e-06 0)
(-0.000890639 -2.61823e-06 0)
(-0.000895723 -3.02425e-06 0)
(-0.00090465 -2.75874e-06 0)
(-0.000916763 -2.11704e-06 0)
(-0.000931232 -1.67365e-06 0)
(-0.000947107 -1.38141e-06 0)
(-0.000963781 -1.15975e-06 0)
(-0.000980917 -9.84568e-07 0)
(-0.000998317 -8.25163e-07 0)
(-0.00101588 -6.70317e-07 0)
(-0.00103351 -5.24216e-07 0)
(-0.00105113 -4.14081e-07 0)
(-0.00106861 -3.39197e-07 0)
(-0.00108588 -2.6893e-07 0)
(-0.00110301 -8.83859e-08 0)
(-0.00112007 2.36711e-07 0)
(-0.00113687 2.28388e-07 0)
(-0.00115309 1.07259e-07 0)
(-0.0011687 3.39866e-08 0)
(-0.00118382 8.01311e-09 0)
(-0.00119851 -2.41154e-08 0)
(-0.00121274 -9.21568e-08 0)
(-0.00122642 -1.75727e-07 0)
(-0.0012395 -2.70115e-07 0)
(-0.00125198 -3.73683e-07 0)
(-0.0012639 -4.64858e-07 0)
(-0.00127538 -5.28996e-07 0)
(-0.00128646 -5.89108e-07 0)
(-0.00129712 -6.73731e-07 0)
(-0.00130734 -7.67059e-07 0)
(-0.00131722 -8.12789e-07 0)
(-0.00132697 -7.85808e-07 0)
(-0.00133674 -7.30565e-07 0)
(-0.00134654 -7.0538e-07 0)
(-0.00135633 -6.9655e-07 0)
(-0.00136623 -6.31877e-07 0)
(-0.00137652 -4.72269e-07 0)
(-0.00138742 -2.70704e-07 0)
(-0.00139891 -1.25094e-07 0)
(-0.00141077 -5.68983e-08 0)
(-0.00142291 3.08423e-08 0)
(-0.00143556 2.31539e-07 0)
(-0.00144898 4.50318e-07 0)
(-0.00146292 4.26241e-07 0)
(-0.00147681 1.02083e-07 0)
(-0.00149035 -3.09526e-08 0)
(-0.00150375 3.23241e-08 0)
(-0.0015175 3.44863e-07 0)
(-0.00153183 7.26975e-07 0)
(-0.00154621 5.40663e-07 0)
(-0.00155985 4.20994e-08 0)
(-0.00157267 -4.13085e-08 0)
(-0.00158502 1.47292e-07 0)
(-0.00159698 1.13366e-07 0)
(-0.0016087 1.23727e-07 0)
(-0.00162063 2.76654e-07 0)
(-0.00163308 3.61071e-07 0)
(-0.00164595 2.74465e-07 0)
(-0.00165906 3.08836e-07 0)
(-0.00167205 1.55601e-07 0)
(-0.00168459 -2.1537e-07 0)
(-0.00169682 -2.43736e-07 0)
(-0.00170922 -9.7287e-08 0)
(-0.00172203 1.71659e-08 0)
(-0.00173511 4.90681e-08 0)
(-0.00174814 9.77145e-08 0)
(-0.00176076 1.84735e-07 0)
(-0.00177264 2.16225e-08 0)
(-0.00178395 4.22858e-08 0)
(-0.00179533 3.35325e-07 0)
(-0.00180717 3.75831e-07 0)
(-0.00181958 2.58726e-07 0)
(-0.00183266 2.46383e-07 0)
(-0.00184633 8.7094e-08 0)
(-0.00186022 7.44707e-08 0)
(-0.00187393 1.38695e-07 0)
(-0.00188705 2.20044e-07 0)
(-0.00189929 7.3398e-08 0)
(-0.00191095 1.27167e-07 0)
(-0.00192274 4.40232e-07 0)
(-0.00193506 4.91064e-07 0)
(-0.00194798 3.8671e-07 0)
(-0.00196162 4.11595e-07 0)
(-0.00197602 3.49437e-07 0)
(-0.00199094 4.20751e-07 0)
(-0.00200589 4.05886e-07 0)
(-0.00202037 2.89633e-07 0)
(-0.00203422 2.9493e-07 0)
(-0.00204764 4.88593e-07 0)
(-0.00206088 5.22125e-07 0)
(-0.00207426 5.79347e-07 0)
(-0.00208816 6.91862e-07 0)
(-0.00210284 7.2631e-07 0)
(-0.00211843 7.03403e-07 0)
(-0.00213511 9.63394e-07 0)
(-0.0021529 1.24643e-06 0)
(-0.00217141 1.37316e-06 0)
(-0.00219002 1.32495e-06 0)
(-0.0022082 1.16571e-06 0)
(-0.00222577 1.04124e-06 0)
(-0.00224298 1.14652e-06 0)
(-0.00226026 1.45449e-06 0)
(-0.00227783 1.5575e-06 0)
(-0.00229572 1.55112e-06 0)
(-0.00231395 1.44764e-06 0)
(-0.00233279 1.35781e-06 0)
(-0.00235275 1.6391e-06 0)
(-0.00237432 2.06047e-06 0)
(-0.00239761 2.45487e-06 0)
(-0.00242244 2.78042e-06 0)
(-0.0024485 3.02202e-06 0)
(-0.00247542 3.16678e-06 0)
(-0.00250283 3.21528e-06 0)
(-0.00253038 3.20099e-06 0)
(-0.00255792 3.21473e-06 0)
(-0.00258553 3.38127e-06 0)
(-0.00261336 3.65218e-06 0)
(-0.00264144 3.76738e-06 0)
(-0.00266987 3.98311e-06 0)
(-0.00269883 4.28392e-06 0)
(-0.00272825 4.36965e-06 0)
(-0.00275808 4.42306e-06 0)
(-0.00278851 4.57655e-06 0)
(-0.00281997 4.86282e-06 0)
(-0.00285292 5.26746e-06 0)
(-0.00288769 5.73218e-06 0)
(-0.00292442 6.19431e-06 0)
(-0.00296314 6.65423e-06 0)
(-0.00300389 7.12401e-06 0)
(-0.00304681 7.63534e-06 0)
(-0.00309213 8.23304e-06 0)
(-0.00314018 8.90124e-06 0)
(-0.00319115 9.57464e-06 0)
(-0.00324496 1.01479e-05 0)
(-0.0033015 1.06081e-05 0)
(-0.00336103 1.11894e-05 0)
(-0.00342426 1.2125e-05 0)
(-0.00349188 1.32286e-05 0)
(-0.00356431 1.44024e-05 0)
(-0.00364189 1.56516e-05 0)
(-0.00372505 1.70062e-05 0)
(-0.0038143 1.84932e-05 0)
(-0.00391023 2.01333e-05 0)
(-0.00401345 2.1935e-05 0)
(-0.0041246 2.38901e-05 0)
(-0.0042443 2.59839e-05 0)
(-0.00437329 2.82351e-05 0)
(-0.00451254 3.07467e-05 0)
(-0.00466333 3.36046e-05 0)
(-0.00482704 3.67584e-05 0)
(-0.0050053 4.03634e-05 0)
(-0.00520011 4.46349e-05 0)
(-0.00541368 4.95189e-05 0)
(-0.00564873 5.52351e-05 0)
(-0.00590891 6.22746e-05 0)
(-0.00619907 7.1127e-05 0)
(-0.00652531 8.23348e-05 0)
(-0.00689586 9.70833e-05 0)
(-0.00732298 0.000117655 0)
(-0.00782602 0.00014808 0)
(-0.00843631 0.000195202 0)
(-0.00920491 0.000270224 0)
(-0.0102125 0.000389503 0)
(-0.0115756 0.000570913 0)
(-0.0134336 0.000820673 0)
(-0.0158976 0.00110937 0)
(-0.0189643 0.00136124 0)
(-0.0224551 0.00149774 0)
(-0.026082 0.00151627 0)
(-0.0296299 0.00151081 0)
(-0.0330749 0.00159346 0)
(-0.0365218 0.00178991 0)
(-0.0400335 0.00200372 0)
(-0.0434551 0.00205869 0)
(-0.0462331 0.00173926 0)
(-0.0472693 0.000742126 0)
(-0.045073 -0.00138862 0)
(-0.0380766 -0.00470563 0)
(-0.0258917 -0.00879631 0)
(-0.0106256 -0.0113303 0)
(-0.0100832 0.0215555 0)
(-0.0161223 0.00245397 0)
(-0.0170393 -0.00375862 0)
(-0.0157121 -0.00437374 0)
(-0.0137738 -0.00367153 0)
(-0.0118932 -0.00285694 0)
(-0.0102512 -0.00220188 0)
(-0.00885123 -0.00171615 0)
(-0.00766103 -0.00135474 0)
(-0.0066497 -0.00107533 0)
(-0.00579363 -0.000848995 0)
(-0.00507546 -0.000659518 0)
(-0.00448178 -0.000499206 0)
(-0.00400106 -0.000365682 0)
(-0.00362151 -0.000257556 0)
(-0.00333027 -0.000173455 0)
(-0.00311346 -0.000110542 0)
(-0.00295693 -6.434e-05 0)
(-0.00284752 -3.15321e-05 0)
(-0.00277414 -8.87361e-06 0)
(-0.00272767 6.36261e-06 0)
(-0.00270116 1.69044e-05 0)
(-0.00268976 2.47716e-05 0)
(-0.00268947 3.03243e-05 0)
(-0.00269689 3.36356e-05 0)
(-0.00270928 3.55098e-05 0)
(-0.00272494 3.6567e-05 0)
(-0.00274274 3.70941e-05 0)
(-0.00276195 3.73543e-05 0)
(-0.00278208 3.74348e-05 0)
(-0.00280277 3.73522e-05 0)
(-0.00282375 3.7065e-05 0)
(-0.00284483 3.65975e-05 0)
(-0.00286578 3.6028e-05 0)
(-0.00288629 3.55659e-05 0)
(-0.00290607 3.5217e-05 0)
(-0.00292501 3.41377e-05 0)
(-0.00294304 3.28581e-05 0)
(-0.00296025 3.17903e-05 0)
(-0.00297676 3.09112e-05 0)
(-0.00299258 3.00167e-05 0)
(-0.00300756 2.89801e-05 0)
(-0.00302152 2.78509e-05 0)
(-0.00303438 2.66757e-05 0)
(-0.00304615 2.55367e-05 0)
(-0.00305695 2.45524e-05 0)
(-0.00306689 2.37392e-05 0)
(-0.00307602 2.29608e-05 0)
(-0.00308434 2.21189e-05 0)
(-0.00309191 2.1338e-05 0)
(-0.00309895 2.0866e-05 0)
(-0.00310572 2.07603e-05 0)
(-0.00311238 2.07978e-05 0)
(-0.00311902 2.07755e-05 0)
(-0.00312575 2.08074e-05 0)
(-0.00313282 2.12211e-05 0)
(-0.00314061 2.21463e-05 0)
(-0.00314932 2.32724e-05 0)
(-0.00315888 2.41283e-05 0)
(-0.00316904 2.46391e-05 0)
(-0.00317975 2.52856e-05 0)
(-0.00319133 2.64898e-05 0)
(-0.00320411 2.78582e-05 0)
(-0.00321801 2.84493e-05 0)
(-0.00323256 2.80121e-05 0)
(-0.00324723 2.76464e-05 0)
(-0.0032619 2.77163e-05 0)
(-0.00327668 2.84772e-05 0)
(-0.00329161 2.9265e-05 0)
(-0.00330644 2.8526e-05 0)
(-0.00332063 2.68095e-05 0)
(-0.0033337 2.56797e-05 0)
(-0.00334555 2.49687e-05 0)
(-0.00335637 2.40858e-05 0)
(-0.00336662 2.39327e-05 0)
(-0.00337707 2.4727e-05 0)
(-0.00338831 2.56847e-05 0)
(-0.00340045 2.62174e-05 0)
(-0.00341312 2.6575e-05 0)
(-0.003426 2.62177e-05 0)
(-0.00343888 2.54594e-05 0)
(-0.00345177 2.54941e-05 0)
(-0.00346496 2.6126e-05 0)
(-0.00347859 2.67273e-05 0)
(-0.00349244 2.67997e-05 0)
(-0.00350583 2.62205e-05 0)
(-0.00351802 2.5066e-05 0)
(-0.00352872 2.34994e-05 0)
(-0.00353825 2.28757e-05 0)
(-0.00354746 2.35512e-05 0)
(-0.00355735 2.45001e-05 0)
(-0.00356868 2.57463e-05 0)
(-0.00358188 2.73524e-05 0)
(-0.00359679 2.82458e-05 0)
(-0.00361243 2.83357e-05 0)
(-0.00362755 2.74855e-05 0)
(-0.00364113 2.59622e-05 0)
(-0.0036529 2.42074e-05 0)
(-0.00366339 2.3614e-05 0)
(-0.0036736 2.43944e-05 0)
(-0.00368457 2.54069e-05 0)
(-0.00369701 2.66812e-05 0)
(-0.00371137 2.84313e-05 0)
(-0.00372765 2.97536e-05 0)
(-0.00374511 3.04352e-05 0)
(-0.00376271 3.00231e-05 0)
(-0.00377958 2.87823e-05 0)
(-0.00379517 2.75641e-05 0)
(-0.00380951 2.69112e-05 0)
(-0.00382318 2.66644e-05 0)
(-0.00383702 2.72454e-05 0)
(-0.00385194 2.86255e-05 0)
(-0.00386866 3.03834e-05 0)
(-0.0038876 3.23084e-05 0)
(-0.00390872 3.45308e-05 0)
(-0.00393163 3.62727e-05 0)
(-0.00395562 3.70037e-05 0)
(-0.00397989 3.66959e-05 0)
(-0.00400376 3.56975e-05 0)
(-0.0040269 3.46378e-05 0)
(-0.00404927 3.41822e-05 0)
(-0.00407117 3.44388e-05 0)
(-0.00409317 3.48592e-05 0)
(-0.00411589 3.55837e-05 0)
(-0.00414001 3.66768e-05 0)
(-0.00416614 3.83855e-05 0)
(-0.00419469 4.11219e-05 0)
(-0.00422593 4.42655e-05 0)
(-0.0042599 4.725e-05 0)
(-0.00429636 4.97905e-05 0)
(-0.00433491 5.17404e-05 0)
(-0.00437506 5.30235e-05 0)
(-0.0044163 5.36507e-05 0)
(-0.00445818 5.37744e-05 0)
(-0.00450034 5.37225e-05 0)
(-0.00454252 5.38549e-05 0)
(-0.00458467 5.41743e-05 0)
(-0.00462699 5.444e-05 0)
(-0.00466971 5.51238e-05 0)
(-0.00471312 5.60848e-05 0)
(-0.00475739 5.67668e-05 0)
(-0.00480274 5.76648e-05 0)
(-0.0048496 5.92127e-05 0)
(-0.00489863 6.15595e-05 0)
(-0.00495054 6.46349e-05 0)
(-0.00500588 6.81532e-05 0)
(-0.00506486 7.17971e-05 0)
(-0.00512753 7.55273e-05 0)
(-0.00519398 7.94014e-05 0)
(-0.00526441 8.35997e-05 0)
(-0.00533922 8.83517e-05 0)
(-0.00541898 9.35829e-05 0)
(-0.00550409 9.90058e-05 0)
(-0.00559473 0.000104305 0)
(-0.00569109 0.000109659 0)
(-0.00579377 0.000115925 0)
(-0.00590364 0.000123564 0)
(-0.00602158 0.000132105 0)
(-0.00614827 0.00014129 0)
(-0.0062844 0.000151184 0)
(-0.00643078 0.000161963 0)
(-0.00658841 0.000173767 0)
(-0.00675835 0.000186678 0)
(-0.00694172 0.000200741 0)
(-0.00713971 0.000215986 0)
(-0.0073536 0.000232496 0)
(-0.00758484 0.000250556 0)
(-0.00783527 0.00027074 0)
(-0.0081072 0.000293527 0)
(-0.00840327 0.000319006 0)
(-0.00872636 0.000347722 0)
(-0.00907974 0.000380353 0)
(-0.00946724 0.000417342 0)
(-0.00989337 0.000459949 0)
(-0.0103637 0.000510074 0)
(-0.0108848 0.000569619 0)
(-0.0114649 0.000641088 0)
(-0.0121135 0.000729182 0)
(-0.0128436 0.000842314 0)
(-0.0136726 0.000994722 0)
(-0.0146253 0.0012097 0)
(-0.0157368 0.00152326 0)
(-0.0170574 0.00198292 0)
(-0.0186544 0.00263085 0)
(-0.020611 0.00346312 0)
(-0.0230159 0.00437892 0)
(-0.0259332 0.00517647 0)
(-0.0293504 0.00565302 0)
(-0.0331375 0.00575554 0)
(-0.0370708 0.00562153 0)
(-0.0409116 0.00543771 0)
(-0.0444629 0.00524253 0)
(-0.0475429 0.00484356 0)
(-0.0498853 0.00387299 0)
(-0.0509887 0.00187347 0)
(-0.0498939 -0.00168979 0)
(-0.0455083 -0.00728369 0)
(-0.0371048 -0.0149951 0)
(-0.0243432 -0.023855 0)
(-0.00892578 -0.0275074 0)
(-0.00804425 0.0333835 0)
(-0.0134974 0.00785134 0)
(-0.0158486 -0.00304294 0)
(-0.0159092 -0.0052978 0)
(-0.0150771 -0.00501622 0)
(-0.0139799 -0.00422685 0)
(-0.0128702 -0.00347854 0)
(-0.0118309 -0.00286842 0)
(-0.0108855 -0.00237989 0)
(-0.0100373 -0.0019794 0)
(-0.00928234 -0.00164008 0)
(-0.00861453 -0.00134521 0)
(-0.00802777 -0.00108627 0)
(-0.00751678 -0.000860135 0)
(-0.00707674 -0.000665968 0)
(-0.00670276 -0.000503467 0)
(-0.00638942 -0.00037131 0)
(-0.0061303 -0.000266595 0)
(-0.00591836 -0.000185725 0)
(-0.00574655 -0.000124567 0)
(-0.00560823 -7.90776e-05 0)
(-0.00549738 -4.51773e-05 0)
(-0.00540831 -1.95459e-05 0)
(-0.00533694 -8.41982e-07 0)
(-0.00527983 1.20078e-05 0)
(-0.00523387 2.0695e-05 0)
(-0.00519656 2.65755e-05 0)
(-0.00516571 3.05871e-05 0)
(-0.00513957 3.32355e-05 0)
(-0.00511715 3.49607e-05 0)
(-0.00509764 3.60268e-05 0)
(-0.00508052 3.65918e-05 0)
(-0.00506542 3.67254e-05 0)
(-0.00505186 3.63514e-05 0)
(-0.00503918 3.54965e-05 0)
(-0.00502678 3.43523e-05 0)
(-0.00501465 3.26421e-05 0)
(-0.0050029 3.08845e-05 0)
(-0.00499158 2.94291e-05 0)
(-0.00498069 2.81676e-05 0)
(-0.00497007 2.67241e-05 0)
(-0.00495943 2.48725e-05 0)
(-0.00494849 2.27792e-05 0)
(-0.00493715 2.06228e-05 0)
(-0.00492544 1.85719e-05 0)
(-0.00491338 1.67553e-05 0)
(-0.00490095 1.51421e-05 0)
(-0.00488817 1.35796e-05 0)
(-0.0048751 1.20312e-05 0)
(-0.00486184 1.07158e-05 0)
(-0.00484849 9.90205e-06 0)
(-0.00483505 9.60534e-06 0)
(-0.00482159 9.56892e-06 0)
(-0.00480828 9.64004e-06 0)
(-0.00479534 1.00368e-05 0)
(-0.00478292 1.11274e-05 0)
(-0.00477108 1.29157e-05 0)
(-0.0047598 1.48659e-05 0)
(-0.00474898 1.63678e-05 0)
(-0.00473852 1.74279e-05 0)
(-0.00472848 1.88194e-05 0)
(-0.00471903 2.11105e-05 0)
(-0.00471035 2.3652e-05 0)
(-0.00470258 2.5284e-05 0)
(-0.00469578 2.56433e-05 0)
(-0.00468965 2.56209e-05 0)
(-0.00468386 2.5799e-05 0)
(-0.00467804 2.64973e-05 0)
(-0.00467194 2.70191e-05 0)
(-0.00466571 2.59964e-05 0)
(-0.00465942 2.37624e-05 0)
(-0.00465265 2.15615e-05 0)
(-0.00464508 1.95881e-05 0)
(-0.00463688 1.79495e-05 0)
(-0.00462837 1.76814e-05 0)
(-0.00461982 1.88903e-05 0)
(-0.00461152 2.05686e-05 0)
(-0.00460369 2.18321e-05 0)
(-0.00459619 2.25719e-05 0)
(-0.00458897 2.24887e-05 0)
(-0.00458208 2.2109e-05 0)
(-0.00457543 2.24015e-05 0)
(-0.00456888 2.32996e-05 0)
(-0.00456235 2.407e-05 0)
(-0.00455572 2.39046e-05 0)
(-0.00454869 2.24284e-05 0)
(-0.00454095 1.98837e-05 0)
(-0.00453249 1.71624e-05 0)
(-0.00452343 1.58674e-05 0)
(-0.00451404 1.65998e-05 0)
(-0.00450497 1.86314e-05 0)
(-0.00449684 2.16495e-05 0)
(-0.00448983 2.50358e-05 0)
(-0.0044838 2.71984e-05 0)
(-0.00447817 2.73604e-05 0)
(-0.00447229 2.54644e-05 0)
(-0.00446567 2.23045e-05 0)
(-0.00445824 1.92174e-05 0)
(-0.00445015 1.78983e-05 0)
(-0.00444179 1.87743e-05 0)
(-0.00443386 2.09284e-05 0)
(-0.00442701 2.40533e-05 0)
(-0.00442148 2.77512e-05 0)
(-0.00441715 3.06603e-05 0)
(-0.00441358 3.19779e-05 0)
(-0.00441024 3.13631e-05 0)
(-0.00440674 2.93313e-05 0)
(-0.00440281 2.7012e-05 0)
(-0.00439838 2.54199e-05 0)
(-0.00439379 2.50566e-05 0)
(-0.00438958 2.6371e-05 0)
(-0.00438628 2.92463e-05 0)
(-0.00438436 3.31271e-05 0)
(-0.00438411 3.73987e-05 0)
(-0.00438539 4.15255e-05 0)
(-0.00438785 4.45938e-05 0)
(-0.00439111 4.60343e-05 0)
(-0.00439484 4.58637e-05 0)
(-0.00439876 4.45881e-05 0)
(-0.00440271 4.30362e-05 0)
(-0.0044066 4.20696e-05 0)
(-0.00441049 4.21214e-05 0)
(-0.00441479 4.3121e-05 0)
(-0.00442005 4.51872e-05 0)
(-0.00442685 4.83343e-05 0)
(-0.00443561 5.2599e-05 0)
(-0.00444648 5.79484e-05 0)
(-0.00445944 6.37125e-05 0)
(-0.00447443 6.92217e-05 0)
(-0.00449136 7.4032e-05 0)
(-0.00451004 7.78814e-05 0)
(-0.00453023 8.06452e-05 0)
(-0.00455168 8.23444e-05 0)
(-0.00457415 8.31764e-05 0)
(-0.00459746 8.35173e-05 0)
(-0.0046214 8.37964e-05 0)
(-0.0046459 8.42373e-05 0)
(-0.00467107 8.49379e-05 0)
(-0.00469708 8.62954e-05 0)
(-0.00472409 8.81773e-05 0)
(-0.00475242 9.01632e-05 0)
(-0.00478248 9.27908e-05 0)
(-0.00481471 9.66155e-05 0)
(-0.00484965 0.000101919 0)
(-0.00488798 0.000108632 0)
(-0.00493022 0.000116197 0)
(-0.00497647 0.000123909 0)
(-0.00502665 0.000131742 0)
(-0.00508073 0.000139822 0)
(-0.00513882 0.000148514 0)
(-0.00520138 0.000158366 0)
(-0.00526906 0.00016924 0)
(-0.00534235 0.000180702 0)
(-0.00542158 0.00019234 0)
(-0.00550721 0.000204535 0)
(-0.00559999 0.000218546 0)
(-0.00570069 0.000234687 0)
(-0.00580988 0.000252418 0)
(-0.00592816 0.000271516 0)
(-0.00605624 0.000292176 0)
(-0.00619506 0.000314749 0)
(-0.00634572 0.000339479 0)
(-0.00650937 0.00036653 0)
(-0.00668725 0.000396037 0)
(-0.00688069 0.000428145 0)
(-0.00709119 0.000463091 0)
(-0.00732047 0.000501404 0)
(-0.0075705 0.000544076 0)
(-0.00784357 0.000592059 0)
(-0.00814216 0.000645674 0)
(-0.00846916 0.00070584 0)
(-0.00882816 0.000773787 0)
(-0.00922326 0.000850471 0)
(-0.00965915 0.000937951 0)
(-0.0101413 0.00103914 0)
(-0.0106759 0.00115684 0)
(-0.01127 0.00129465 0)
(-0.0119318 0.00145873 0)
(-0.012671 0.00165948 0)
(-0.0134985 0.00191368 0)
(-0.0144266 0.00224765 0)
(-0.0154669 0.00270112 0)
(-0.0166293 0.00332736 0)
(-0.0179209 0.00417865 0)
(-0.0193518 0.00526759 0)
(-0.0209509 0.00651164 0)
(-0.0227784 0.00770604 0)
(-0.0249053 0.00859036 0)
(-0.0273496 0.00900016 0)
(-0.030022 0.00896547 0)
(-0.0327395 0.00862631 0)
(-0.0352921 0.0080258 0)
(-0.037493 0.00695439 0)
(-0.0391564 0.00494154 0)
(-0.0399561 0.00137161 0)
(-0.0391464 -0.00433871 0)
(-0.0360918 -0.0127248 0)
(-0.029808 -0.0243299 0)
(-0.0195544 -0.037785 0)
(-0.00682258 -0.0423094 0)
(-0.00661455 0.0430423 0)
(-0.011736 0.012905 0)
(-0.0145686 -0.00156594 0)
(-0.0153478 -0.0053531 0)
(-0.0152109 -0.00563432 0)
(-0.0147136 -0.00502258 0)
(-0.0140979 -0.00430061 0)
(-0.0134619 -0.0036569 0)
(-0.0128458 -0.00311214 0)
(-0.0122659 -0.002649 0)
(-0.0117266 -0.00224776 0)
(-0.0112277 -0.00189431 0)
(-0.0107669 -0.00158051 0)
(-0.0103419 -0.00130255 0)
(-0.00995133 -0.00105905 0)
(-0.00959452 -0.000849465 0)
(-0.00927102 -0.000672679 0)
(-0.00898019 -0.000526387 0)
(-0.00872081 -0.000407453 0)
(-0.00849103 -0.000312284 0)
(-0.00828844 -0.000237066 0)
(-0.00811011 -0.000177696 0)
(-0.00795263 -0.000130614 0)
(-0.00781279 -9.3852e-05 0)
(-0.00768805 -6.60628e-05 0)
(-0.00757634 -4.52601e-05 0)
(-0.00747569 -2.96682e-05 0)
(-0.00738458 -1.79014e-05 0)
(-0.00730173 -9.05008e-06 0)
(-0.0072257 -2.31659e-06 0)
(-0.00715545 2.88483e-06 0)
(-0.00709016 6.95278e-06 0)
(-0.00702911 1.00073e-05 0)
(-0.0069717 1.18781e-05 0)
(-0.00691725 1.25601e-05 0)
(-0.00686519 1.25127e-05 0)
(-0.00681534 1.19908e-05 0)
(-0.0067676 1.14585e-05 0)
(-0.00672187 1.11826e-05 0)
(-0.00667799 1.09682e-05 0)
(-0.00663571 1.02615e-05 0)
(-0.0065947 8.75686e-06 0)
(-0.00655463 6.80705e-06 0)
(-0.00651536 4.73788e-06 0)
(-0.00647682 2.74854e-06 0)
(-0.00643892 9.45728e-07 0)
(-0.00640155 -6.9836e-07 0)
(-0.00636466 -2.27501e-06 0)
(-0.00632829 -3.76823e-06 0)
(-0.00629242 -4.97515e-06 0)
(-0.00625699 -5.69387e-06 0)
(-0.00622193 -5.90446e-06 0)
(-0.00618722 -5.76223e-06 0)
(-0.00615297 -5.33072e-06 0)
(-0.00611931 -4.41328e-06 0)
(-0.00608622 -2.7688e-06 0)
(-0.00605353 -5.14864e-07 0)
(-0.00602108 1.7662e-06 0)
(-0.00598881 3.49575e-06 0)
(-0.0059567 4.75557e-06 0)
(-0.00592473 6.45054e-06 0)
(-0.00589295 9.24983e-06 0)
(-0.00586142 1.24168e-05 0)
(-0.00583036 1.4854e-05 0)
(-0.00580006 1.61348e-05 0)
(-0.0057705 1.67193e-05 0)
(-0.00574142 1.71414e-05 0)
(-0.00571242 1.76914e-05 0)
(-0.00568323 1.79023e-05 0)
(-0.00565406 1.69166e-05 0)
(-0.00562521 1.47934e-05 0)
(-0.00559656 1.22485e-05 0)
(-0.00556791 9.75902e-06 0)
(-0.00553931 7.88731e-06 0)
(-0.00551067 7.46423e-06 0)
(-0.00548181 8.52965e-06 0)
(-0.00545268 1.02392e-05 0)
(-0.00542345 1.171e-05 0)
(-0.00539423 1.25831e-05 0)
(-0.00536519 1.27478e-05 0)
(-0.00533644 1.26911e-05 0)
(-0.00530786 1.3071e-05 0)
(-0.00527918 1.38665e-05 0)
(-0.00525026 1.44436e-05 0)
(-0.00522112 1.40229e-05 0)
(-0.00519188 1.22185e-05 0)
(-0.00516272 9.33796e-06 0)
(-0.00513378 6.40515e-06 0)
(-0.00510495 4.84813e-06 0)
(-0.00507601 5.38678e-06 0)
(-0.00504696 7.71623e-06 0)
(-0.00501791 1.12822e-05 0)
(-0.00498876 1.5057e-05 0)
(-0.00495951 1.75082e-05 0)
(-0.00493028 1.77301e-05 0)
(-0.00490124 1.57013e-05 0)
(-0.00487252 1.23229e-05 0)
(-0.00484421 9.09116e-06 0)
(-0.00481614 7.57776e-06 0)
(-0.00478809 8.37234e-06 0)
(-0.00476011 1.0995e-05 0)
(-0.00473233 1.48975e-05 0)
(-0.00470472 1.92471e-05 0)
(-0.00467723 2.27033e-05 0)
(-0.0046499 2.43643e-05 0)
(-0.00462287 2.397e-05 0)
(-0.00459637 2.20903e-05 0)
(-0.00457045 1.98401e-05 0)
(-0.00454508 1.83287e-05 0)
(-0.00452024 1.83159e-05 0)
(-0.00449595 2.02376e-05 0)
(-0.00447219 2.3952e-05 0)
(-0.00444896 2.88255e-05 0)
(-0.00442631 3.40974e-05 0)
(-0.00440416 3.89946e-05 0)
(-0.00438245 4.26766e-05 0)
(-0.00436123 4.46517e-05 0)
(-0.0043406 4.49757e-05 0)
(-0.00432069 4.41773e-05 0)
(-0.00430159 4.30741e-05 0)
(-0.00428329 4.25048e-05 0)
(-0.00426574 4.30203e-05 0)
(-0.00424901 4.48164e-05 0)
(-0.0042333 4.80101e-05 0)
(-0.00421877 5.26098e-05 0)
(-0.0042055 5.84827e-05 0)
(-0.00419341 6.53396e-05 0)
(-0.00418236 7.25614e-05 0)
(-0.00417235 7.95262e-05 0)
(-0.00416343 8.57635e-05 0)
(-0.00415563 9.09771e-05 0)
(-0.00414901 9.50266e-05 0)
(-0.00414363 9.79371e-05 0)
(-0.00413956 9.99154e-05 0)
(-0.00413684 0.000101323 0)
(-0.00413547 0.000102573 0)
(-0.00413543 0.000103984 0)
(-0.00413682 0.000105804 0)
(-0.00413969 0.000108338 0)
(-0.00414411 0.000111562 0)
(-0.00415031 0.000115325 0)
(-0.00415864 0.000120082 0)
(-0.00416937 0.000126399 0)
(-0.00418284 0.000134704 0)
(-0.00419954 0.000145015 0)
(-0.00421988 0.00015652 0)
(-0.00424385 0.00016798 0)
(-0.0042713 0.000179473 0)
(-0.00430216 0.000191196 0)
(-0.00433647 0.00020369 0)
(-0.00437461 0.000217994 0)
(-0.00441715 0.000233873 0)
(-0.00446459 0.000250824 0)
(-0.00451741 0.00026842 0)
(-0.0045762 0.000287135 0)
(-0.00464156 0.000308406 0)
(-0.00471393 0.000332272 0)
(-0.00479363 0.000358225 0)
(-0.00488111 0.000386139 0)
(-0.00497693 0.000416378 0)
(-0.00508196 0.000449546 0)
(-0.00519722 0.000485955 0)
(-0.00532375 0.000525825 0)
(-0.00546263 0.000569405 0)
(-0.00561509 0.000617016 0)
(-0.00578257 0.000669097 0)
(-0.00596671 0.000726333 0)
(-0.0061692 0.000789808 0)
(-0.00639175 0.000860656 0)
(-0.00663607 0.000939504 0)
(-0.00690445 0.00102792 0)
(-0.00720022 0.00112808 0)
(-0.00752713 0.00124114 0)
(-0.00788907 0.00136952 0)
(-0.0082903 0.00151681 0)
(-0.00873545 0.00168641 0)
(-0.00922975 0.00188279 0)
(-0.009779 0.00211289 0)
(-0.0103892 0.00238744 0)
(-0.0110656 0.00272263 0)
(-0.0118113 0.00314219 0)
(-0.0126236 0.00367988 0)
(-0.01349 0.00437971 0)
(-0.0143846 0.0052859 0)
(-0.0152719 0.00641612 0)
(-0.0161266 0.00771885 0)
(-0.0169642 0.00903895 0)
(-0.017854 0.0101405 0)
(-0.0188785 0.0108099 0)
(-0.0200596 0.0109679 0)
(-0.0213218 0.0106678 0)
(-0.0225389 0.00994861 0)
(-0.0236338 0.00864347 0)
(-0.0246463 0.00625496 0)
(-0.0256427 0.00198929 0)
(-0.0263775 -0.00496751 0)
(-0.0255599 -0.0154545 0)
(-0.0221333 -0.0304777 0)
(-0.0148534 -0.0483606 0)
(-0.00512352 -0.05379 0)
(-0.00556939 0.0512006 0)
(-0.0104527 0.0177523 0)
(-0.0134084 0.000407215 0)
(-0.0145433 -0.00487363 0)
(-0.0147692 -0.00575353 0)
(-0.0146263 -0.00538132 0)
(-0.0143296 -0.00474925 0)
(-0.0139728 -0.00413037 0)
(-0.0135974 -0.00358154 0)
(-0.0132227 -0.00310236 0)
(-0.0128567 -0.00268137 0)
(-0.0125021 -0.00230812 0)
(-0.0121591 -0.00197549 0)
(-0.0118276 -0.00167923 0)
(-0.0115077 -0.00141712 0)
(-0.0112006 -0.00118783 0)
(-0.0109078 -0.00098986 0)
(-0.0106311 -0.000821147 0)
(-0.0103718 -0.000679243 0)
(-0.0101305 -0.000561413 0)
(-0.00990731 -0.000464583 0)
(-0.00970154 -0.000385376 0)
(-0.00951192 -0.00032073 0)
(-0.00933706 -0.000268394 0)
(-0.00917579 -0.00022647 0)
(-0.00902698 -0.00019298 0)
(-0.00888945 -0.000166175 0)
(-0.00876202 -0.000144681 0)
(-0.00864353 -0.000127294 0)
(-0.00853291 -0.000113135 0)
(-0.00842919 -0.000101482 0)
(-0.00833154 -9.18085e-05 0)
(-0.00823916 -8.3891e-05 0)
(-0.00815148 -7.77632e-05 0)
(-0.00806806 -7.32976e-05 0)
(-0.00798852 -6.99666e-05 0)
(-0.00791258 -6.73095e-05 0)
(-0.00783996 -6.48759e-05 0)
(-0.00777032 -6.2439e-05 0)
(-0.00770333 -6.02286e-05 0)
(-0.00763867 -5.88374e-05 0)
(-0.00757611 -5.85432e-05 0)
(-0.00751548 -5.88821e-05 0)
(-0.00745663 -5.94584e-05 0)
(-0.00739943 -6.00761e-05 0)
(-0.00734372 -6.06451e-05 0)
(-0.00728935 -6.11678e-05 0)
(-0.00723621 -6.16724e-05 0)
(-0.00718427 -6.21277e-05 0)
(-0.00713346 -6.23857e-05 0)
(-0.00708365 -6.23013e-05 0)
(-0.00703469 -6.18343e-05 0)
(-0.00698648 -6.10427e-05 0)
(-0.00693901 -5.99332e-05 0)
(-0.00689228 -5.83852e-05 0)
(-0.00684615 -5.6306e-05 0)
(-0.00680037 -5.38516e-05 0)
(-0.00675473 -5.15142e-05 0)
(-0.00670921 -4.97626e-05 0)
(-0.0066639 -4.84545e-05 0)
(-0.00661882 -4.67086e-05 0)
(-0.00657382 -4.3886e-05 0)
(-0.00652873 -4.06552e-05 0)
(-0.00648362 -3.79166e-05 0)
(-0.00643873 -3.60721e-05 0)
(-0.00639424 -3.49387e-05 0)
(-0.00635012 -3.41778e-05 0)
(-0.00630614 -3.35881e-05 0)
(-0.0062621 -3.34059e-05 0)
(-0.00621813 -3.40849e-05 0)
(-0.00617453 -3.56443e-05 0)
(-0.00613143 -3.76889e-05 0)
(-0.00608888 -3.97507e-05 0)
(-0.00604686 -4.12553e-05 0)
(-0.00600513 -4.16465e-05 0)
(-0.00596328 -4.09169e-05 0)
(-0.00592101 -3.96197e-05 0)
(-0.00587833 -3.83998e-05 0)
(-0.0058354 -3.76133e-05 0)
(-0.00579245 -3.73075e-05 0)
(-0.00574964 -3.71542e-05 0)
(-0.00570689 -3.67865e-05 0)
(-0.00566393 -3.62367e-05 0)
(-0.00562064 -3.59324e-05 0)
(-0.00557709 -3.64133e-05 0)
(-0.00553362 -3.79456e-05 0)
(-0.00549059 -4.02546e-05 0)
(-0.00544826 -4.25255e-05 0)
(-0.00540653 -4.3736e-05 0)
(-0.00536499 -4.33058e-05 0)
(-0.0053232 -4.13336e-05 0)
(-0.00528084 -3.83281e-05 0)
(-0.00523771 -3.52177e-05 0)
(-0.00519387 -3.3156e-05 0)
(-0.00514976 -3.28496e-05 0)
(-0.00510598 -3.42869e-05 0)
(-0.00506301 -3.67435e-05 0)
(-0.00502104 -3.90535e-05 0)
(-0.00497986 -4.00552e-05 0)
(-0.004939 -3.92101e-05 0)
(-0.00489806 -3.67196e-05 0)
(-0.00485677 -3.31089e-05 0)
(-0.00481493 -2.91904e-05 0)
(-0.0047726 -2.59828e-05 0)
(-0.00473013 -2.41871e-05 0)
(-0.00468799 -2.39794e-05 0)
(-0.00464664 -2.49084e-05 0)
(-0.00460635 -2.61053e-05 0)
(-0.00456714 -2.66605e-05 0)
(-0.00452882 -2.59009e-05 0)
(-0.00449107 -2.34876e-05 0)
(-0.0044536 -1.95313e-05 0)
(-0.00441619 -1.45392e-05 0)
(-0.00437866 -9.18613e-06 0)
(-0.004341 -4.19999e-06 0)
(-0.00430334 -2.6121e-07 0)
(-0.00426599 2.25885e-06 0)
(-0.00422931 3.43946e-06 0)
(-0.00419362 3.7425e-06 0)
(-0.00415914 3.84757e-06 0)
(-0.00412592 4.44944e-06 0)
(-0.00409386 6.06171e-06 0)
(-0.00406286 8.95559e-06 0)
(-0.00403273 1.32527e-05 0)
(-0.00400336 1.88442e-05 0)
(-0.00397464 2.55527e-05 0)
(-0.00394642 3.30629e-05 0)
(-0.00391856 4.08786e-05 0)
(-0.00389113 4.85178e-05 0)
(-0.00386426 5.55649e-05 0)
(-0.00383817 6.17688e-05 0)
(-0.00381306 6.70046e-05 0)
(-0.00378918 7.12897e-05 0)
(-0.00376677 7.4808e-05 0)
(-0.00374602 7.78722e-05 0)
(-0.00372704 8.084e-05 0)
(-0.00370992 8.40165e-05 0)
(-0.00369469 8.76688e-05 0)
(-0.00368139 9.20348e-05 0)
(-0.00367004 9.71805e-05 0)
(-0.00366079 0.000103145 0)
(-0.00365382 0.000110298 0)
(-0.00364923 0.000119173 0)
(-0.00364712 0.000130288 0)
(-0.0036476 0.000143747 0)
(-0.00365078 0.000158627 0)
(-0.00365674 0.00017334 0)
(-0.00366561 0.000188071 0)
(-0.00367753 0.000203063 0)
(-0.00369263 0.000218924 0)
(-0.0037111 0.000237034 0)
(-0.00373317 0.000257129 0)
(-0.00375922 0.000278793 0)
(-0.0037898 0.000301731 0)
(-0.00382554 0.000326364 0)
(-0.00386681 0.00035389 0)
(-0.0039137 0.000384244 0)
(-0.00396643 0.000417016 0)
(-0.00402526 0.000452124 0)
(-0.0040905 0.000490117 0)
(-0.0041629 0.000532029 0)
(-0.00424337 0.000578156 0)
(-0.00433274 0.000628673 0)
(-0.00443183 0.000683916 0)
(-0.00454157 0.000744382 0)
(-0.00466308 0.000810715 0)
(-0.0047976 0.000883723 0)
(-0.00494635 0.000964411 0)
(-0.00511044 0.00105381 0)
(-0.00529096 0.00115279 0)
(-0.00548945 0.00126356 0)
(-0.00570836 0.00138944 0)
(-0.00595044 0.00153163 0)
(-0.00621837 0.00169244 0)
(-0.00651471 0.00187564 0)
(-0.00684199 0.00208496 0)
(-0.00720313 0.00232526 0)
(-0.0076011 0.0026036 0)
(-0.00803826 0.00292992 0)
(-0.00851506 0.00331819 0)
(-0.00902817 0.00378727 0)
(-0.00956737 0.00436198 0)
(-0.0101113 0.00507255 0)
(-0.0106237 0.00594765 0)
(-0.0110546 0.00699767 0)
(-0.0113539 0.00818845 0)
(-0.0114992 0.00941459 0)
(-0.0115218 0.0104991 0)
(-0.0115006 0.0112435 0)
(-0.0115104 0.0115107 0)
(-0.0115657 0.0112675 0)
(-0.011621 0.010534 0)
(-0.0116529 0.00925884 0)
(-0.0117784 0.00715047 0)
(-0.012319 0.00341024 0)
(-0.0139712 -0.00359432 0)
(-0.0154633 -0.0154568 0)
(-0.0148808 -0.0334941 0)
(-0.0104867 -0.0557728 0)
(-0.00366427 -0.0623016 0)
(-0.00477592 0.0583671 0)
(-0.00947921 0.0223659 0)
(-0.0124243 0.00250418 0)
(-0.0136796 -0.00414387 0)
(-0.0140864 -0.00561157 0)
(-0.0141326 -0.00549031 0)
(-0.0140147 -0.0049679 0)
(-0.0138202 -0.00439675 0)
(-0.0135887 -0.00386664 0)
(-0.0133391 -0.0033924 0)
(-0.0130811 -0.00297024 0)
(-0.0128192 -0.00259357 0)
(-0.0125556 -0.00225676 0)
(-0.0122916 -0.00195578 0)
(-0.0120287 -0.00168794 0)
(-0.0117686 -0.0014513 0)
(-0.0115134 -0.00124408 0)
(-0.0112654 -0.0010643 0)
(-0.0110262 -0.000909924 0)
(-0.0107973 -0.000778681 0)
(-0.0105799 -0.000667992 0)
(-0.0103743 -0.00057508 0)
(-0.0101805 -0.000497349 0)
(-0.00999822 -0.000432609 0)
(-0.00982713 -0.000378917 0)
(-0.00966672 -0.000334434 0)
(-0.00951633 -0.000297527 0)
(-0.00937524 -0.000266822 0)
(-0.00924266 -0.000241153 0)
(-0.00911784 -0.000219575 0)
(-0.00899999 -0.00020132 0)
(-0.0088884 -0.000185809 0)
(-0.0087824 -0.000172697 0)
(-0.00868151 -0.00016181 0)
(-0.0085854 -0.000152875 0)
(-0.00849377 -0.00014541 0)
(-0.00840627 -0.000138956 0)
(-0.0083225 -0.000133117 0)
(-0.00824199 -0.000127708 0)
(-0.0081643 -0.000122906 0)
(-0.00808918 -0.000119138 0)
(-0.00801657 -0.000116543 0)
(-0.0079464 -0.000114712 0)
(-0.0078785 -0.000113286 0)
(-0.0078127 -0.000112084 0)
(-0.00774879 -0.000111014 0)
(-0.0076866 -0.000110049 0)
(-0.00762598 -0.000109163 0)
(-0.00756684 -0.000108304 0)
(-0.00750907 -0.000107354 0)
(-0.00745253 -0.000106204 0)
(-0.00739705 -0.000104812 0)
(-0.00734249 -0.000103179 0)
(-0.00728875 -0.000101291 0)
(-0.00723574 -9.90792e-05 0)
(-0.00718326 -9.65357e-05 0)
(-0.0071311 -9.3831e-05 0)