/*--------------------------------*- C++ -*----------------------------------*\
  =========                 |
  \\      /  F ield         | OpenFOAM: The Open Source CFD Toolbox
   \\    /   O peration     | Website:  https://openfoam.org
    \\  /    A nd           | Version:  12
     \\/     M anipulation  |
\*---------------------------------------------------------------------------*/
FoamFile
{
    format      ascii;
    class       volScalarField;
    location    "10";
    object      p;
}
// * * * * * * * * * * * * * * * * * * * * * * * * * * * * * * * * * * * * * //

dimensions      [1 -1 -2 0 0 0 0];

internalField   nonuniform List<scalar> 
40000
(
100152.825989
100152.826407
100152.827084
100152.827629
100152.827775
100152.827612
100152.827242
100152.826669
100152.825988
100152.825263
100152.824535
100152.823838
100152.823204
100152.822657
100152.82221
100152.821867
100152.821617
100152.821442
100152.821321
100152.821232
100152.821157
100152.821079
100152.820987
100152.820873
100152.820731
100152.820555
100152.820344
100152.820104
100152.819836
100152.819543
100152.819226
100152.818886
100152.818526
100152.818148
100152.817754
100152.81735
100152.816936
100152.816514
100152.816086
100152.815653
100152.815217
100152.814779
100152.814341
100152.813904
100152.813467
100152.813033
100152.812598
100152.812163
100152.81173
100152.811297
100152.810866
100152.810435
100152.810005
100152.809576
100152.80915
100152.808728
100152.808314
100152.80791
100152.807521
100152.807151
100152.806804
100152.806482
100152.806186
100152.805915
100152.805668
100152.805442
100152.805237
100152.805049
100152.804876
100152.804715
100152.804562
100152.804412
100152.804262
100152.804108
100152.803945
100152.803773
100152.80359
100152.803399
100152.803199
100152.802995
100152.802786
100152.802573
100152.802354
100152.802129
100152.8019
100152.801679
100152.801471
100152.801286
100152.801136
100152.801024
100152.800943
100152.800887
100152.800843
100152.8008
100152.800746
100152.800675
100152.800581
100152.800462
100152.800317
100152.800148
100152.799959
100152.799737
100152.799474
100152.799164
100152.798803
100152.798404
100152.798015
100152.797696
100152.797456
100152.797281
100152.797163
100152.797085
100152.797032
100152.796988
100152.796943
100152.796889
100152.796821
100152.796739
100152.796639
100152.796522
100152.796386
100152.796228
100152.796046
100152.795838
100152.795606
100152.795351
100152.795077
100152.794789
100152.794491
100152.794185
100152.793874
100152.793558
100152.793235
100152.792903
100152.792562
100152.792214
100152.79186
100152.79151
100152.791172
100152.790858
100152.790582
100152.790354
100152.79018
100152.79006
100152.789988
100152.789949
100152.789928
100152.789907
100152.789869
100152.7898
100152.789692
100152.789538
100152.789335
100152.789084
100152.788787
100152.788452
100152.788086
100152.787698
100152.787301
100152.786907
100152.786529
100152.786182
100152.78588
100152.785635
100152.785459
100152.785355
100152.785323
100152.785355
100152.785438
100152.785557
100152.785698
100152.785844
100152.785984
100152.78611
100152.786215
100152.786297
100152.786356
100152.786392
100152.786409
100152.786414
100152.786416
100152.786427
100152.786467
100152.786562
100152.786745
100152.787064
100152.787579
100152.788396
100152.789703
100152.791766
100152.794813
100152.799356
100152.806042
100152.815661
100152.829105
100152.847083
100152.869196
100152.892176
100152.908809
100152.912792
100152.767038
100152.766819
100152.767208
100152.767536
100152.76758
100152.767398
100152.767041
100152.766516
100152.765887
100152.765209
100152.764522
100152.763863
100152.763269
100152.762772
100152.762389
100152.762104
100152.761909
100152.761789
100152.761721
100152.761679
100152.761637
100152.761577
100152.761487
100152.761358
100152.761185
100152.760968
100152.760709
100152.760415
100152.76009
100152.759736
100152.759357
100152.758956
100152.758535
100152.758089
100152.75763
100152.757163
100152.756689
100152.756208
100152.755724
100152.755239
100152.754753
100152.75427
100152.75379
100152.753315
100152.752845
100152.75238
100152.751919
100152.751462
100152.751008
100152.750558
100152.75011
100152.749664
100152.74922
100152.748778
100152.748339
100152.747905
100152.747479
100152.747065
100152.746668
100152.746291
100152.745939
100152.745613
100152.745315
100152.745042
100152.744792
100152.744564
100152.744354
100152.744162
100152.743985
100152.74382
100152.743663
100152.743511
100152.743359
100152.743203
100152.743038
100152.742864
100152.742679
100152.742484
100152.742281
100152.742074
100152.741864
100152.741652
100152.741438
100152.74122
100152.740994
100152.74076
100152.740532
100152.74033
100152.740164
100152.740041
100152.739956
100152.7399
100152.739859
100152.739819
100152.739768
100152.7397
100152.739607
100152.739487
100152.739339
100152.739162
100152.738959
100152.738739
100152.738491
100152.738203
100152.737868
100152.737485
100152.73707
100152.736684
100152.736392
100152.736202
100152.736084
100152.736009
100152.735958
100152.735913
100152.735866
100152.735811
100152.735744
100152.735663
100152.735567
100152.735453
100152.73532
100152.735164
100152.734983
100152.734775
100152.73454
100152.734282
100152.734002
100152.733706
100152.733399
100152.733085
100152.732764
100152.732437
100152.732102
100152.731758
100152.731403
100152.731038
100152.730668
100152.7303
100152.729945
100152.729617
100152.72933
100152.729096
100152.728923
100152.728813
100152.728755
100152.728737
100152.728736
100152.728733
100152.72871
100152.728652
100152.72855
100152.728396
100152.72819
100152.727932
100152.727625
100152.727278
100152.726898
100152.726496
100152.726085
100152.725677
100152.725286
100152.724927
100152.724615
100152.724366
100152.724188
100152.72409
100152.724071
100152.72412
100152.724224
100152.724364
100152.724525
100152.724689
100152.724843
100152.724978
100152.725091
100152.725177
100152.725236
100152.725271
100152.725285
100152.725281
100152.72527
100152.725263
100152.725274
100152.725326
100152.725446
100152.725669
100152.726046
100152.726653
100152.727626
100152.729167
100152.731628
100152.735365
100152.740936
100152.749085
100152.760674
100152.77639
100152.795949
100152.816679
100152.832497
100152.837102
100152.707118
100152.70682
100152.707107
100152.707277
100152.707228
100152.707003
100152.706634
100152.706133
100152.705541
100152.704897
100152.704242
100152.703612
100152.703047
100152.70258
100152.702237
100152.702009
100152.701892
100152.701865
100152.701891
100152.701933
100152.701956
100152.701932
100152.701845
100152.701687
100152.70146
100152.701167
100152.700819
100152.700436
100152.70003
100152.699602
100152.699155
100152.698691
100152.698211
100152.697715
100152.697206
100152.696691
100152.69617
100152.695647
100152.695125
100152.694604
100152.694088
100152.693577
100152.693074
100152.692578
100152.69209
100152.69161
100152.691137
100152.690669
100152.690208
100152.689751
100152.689298
100152.688849
100152.688402
100152.687957
100152.687516
100152.687079
100152.686649
100152.686229
100152.685825
100152.685441
100152.685081
100152.684748
100152.684444
100152.684167
100152.683916
100152.683687
100152.683478
100152.683286
100152.683109
100152.682943
100152.682786
100152.682632
100152.682479
100152.682321
100152.682156
100152.681982
100152.681798
100152.681604
100152.681402
100152.681194
100152.680982
100152.680767
100152.680547
100152.680326
100152.680103
100152.679882
100152.679671
100152.679479
100152.679314
100152.679181
100152.679079
100152.679002
100152.678938
100152.678878
100152.678812
100152.678734
100152.678639
100152.678523
100152.678385
100152.678223
100152.678036
100152.67782
100152.677571
100152.677291
100152.67698
100152.676646
100152.676302
100152.675972
100152.675685
100152.675457
100152.675281
100152.67514
100152.67502
100152.674907
100152.674797
100152.674685
100152.674576
100152.674472
100152.674376
100152.674287
100152.674202
100152.674113
100152.674009
100152.673883
100152.673728
100152.673541
100152.67332
100152.673065
100152.672779
100152.672465
100152.672123
100152.671755
100152.671363
100152.670947
100152.670512
100152.670062
100152.669607
100152.669158
100152.668734
100152.668353
100152.668036
100152.6678
100152.667658
100152.66761
100152.667643
100152.66773
100152.667837
100152.667932
100152.667988
100152.667987
100152.667918
100152.667779
100152.667568
100152.667292
100152.666958
100152.666577
100152.66616
100152.665722
100152.665275
100152.664834
100152.664413
100152.664029
100152.663698
100152.663441
100152.663273
100152.663204
100152.663234
100152.663349
100152.663522
100152.663731
100152.663953
100152.664169
100152.664365
100152.664533
100152.664669
100152.664772
100152.664844
100152.664887
100152.664902
100152.664894
100152.664871
100152.664842
100152.664821
100152.664823
100152.664872
100152.664999
100152.665245
100152.665686
100152.666393
100152.667478
100152.669179
100152.671837
100152.675938
100152.682164
100152.691353
100152.704236
100152.720761
100152.738949
100152.753814
100152.75885
100152.647035
100152.646801
100152.646997
100152.647036
100152.646908
100152.646637
100152.646248
100152.645755
100152.645182
100152.644561
100152.643926
100152.643313
100152.642763
100152.642322
100152.642009
100152.641832
100152.641779
100152.641825
100152.641923
100152.642019
100152.642066
100152.64203
100152.641904
100152.641685
100152.641386
100152.641024
100152.640617
100152.640176
100152.639711
100152.639226
100152.638725
100152.638209
100152.637681
100152.637142
100152.636596
100152.636045
100152.635493
100152.634942
100152.634395
100152.633852
100152.633317
100152.63279
100152.632273
100152.631765
100152.631267
100152.630779
100152.6303
100152.629829
100152.629366
100152.628909
100152.628458
100152.628012
100152.627571
100152.627134
100152.626702
100152.626276
100152.625858
100152.62545
100152.625056
100152.624681
100152.624326
100152.623995
100152.623688
100152.623404
100152.623143
100152.622903
100152.622682
100152.622476
100152.622286
100152.622107
100152.621939
100152.621777
100152.62162
100152.621464
100152.621307
100152.621147
100152.620981
100152.620811
100152.620634
100152.620452
100152.620264
100152.62007
100152.619869
100152.619661
100152.619447
100152.619229
100152.619014
100152.61881
100152.618624
100152.618459
100152.618316
100152.618192
100152.618083
100152.617984
100152.617891
100152.6178
100152.617709
100152.617615
100152.617515
100152.617405
100152.617278
100152.617129
100152.61695
100152.616736
100152.616483
100152.616198
100152.615892
100152.615583
100152.615288
100152.615013
100152.614758
100152.614516
100152.614284
100152.614059
100152.613844
100152.613647
100152.613478
100152.613346
100152.613258
100152.613216
100152.613211
100152.613229
100152.613249
100152.61325
100152.613216
100152.613136
100152.613002
100152.61281
100152.612559
100152.61225
100152.611884
100152.611466
100152.611001
100152.610494
100152.609955
100152.609396
100152.608834
100152.608287
100152.607779
100152.607336
100152.606986
100152.606756
100152.606663
100152.606708
100152.606869
100152.607103
100152.607352
100152.607567
100152.607717
100152.607782
100152.607752
100152.607627
100152.607412
100152.607117
100152.606753
100152.606337
100152.605884
100152.60541
100152.604931
100152.604462
100152.604019
100152.603618
100152.603283
100152.60304
100152.602905
100152.602886
100152.602983
100152.603171
100152.603412
100152.603683
100152.603969
100152.604243
100152.604482
100152.604679
100152.604834
100152.60495
100152.605029
100152.605071
100152.605081
100152.60506
100152.605016
100152.604959
100152.604902
100152.604859
100152.604844
100152.604876
100152.604979
100152.605177
100152.605519
100152.606087
100152.607023
100152.608567
100152.611104
100152.615234
100152.621768
100152.631531
100152.644797
100152.660318
100152.674154
100152.679513
100152.587028
100152.586859
100152.586962
100152.586905
100152.586712
100152.586405
100152.586002
100152.585513
100152.584956
100152.584358
100152.58375
100152.583168
100152.582653
100152.582244
100152.58194
100152.581766
100152.581734
100152.581791
100152.581883
100152.581953
100152.581956
100152.581868
100152.581684
100152.58141
100152.581062
100152.580655
100152.580204
100152.579721
100152.579214
100152.578688
100152.578148
100152.577595
100152.577033
100152.576464
100152.575891
100152.575317
100152.574745
100152.574176
100152.573613
100152.573057
100152.572511
100152.571974
100152.571449
100152.570935
100152.570434
100152.569943
100152.569464
100152.568997
100152.568539
100152.568091
100152.567652
100152.567221
100152.566797
100152.56638
100152.565969
100152.565565
100152.565169
100152.564782
100152.564408
100152.564047
100152.563702
100152.563375
100152.563067
100152.562777
100152.562505
100152.56225
100152.562011
100152.561786
100152.561576
100152.56138
100152.561197
100152.561026
100152.560866
100152.560716
100152.560572
100152.560434
100152.560299
100152.560164
100152.560025
100152.559881
100152.559729
100152.559567
100152.559393
100152.559207
100152.559007
100152.558797
100152.558579
100152.55836
100152.558144
100152.557937
100152.557743
100152.557563
100152.557399
100152.557254
100152.557129
100152.557025
100152.556943
100152.556881
100152.556831
100152.556787
100152.556738
100152.556671
100152.556577
100152.556445
100152.556271
100152.556052
100152.555793
100152.555502
100152.555187
100152.554856
100152.554512
100152.554159
100152.553804
100152.553456
100152.553131
100152.552846
100152.552619
100152.552468
100152.552406
100152.552432
100152.552533
100152.552681
100152.55284
100152.552977
100152.553066
100152.553089
100152.553036
100152.552897
100152.552671
100152.552358
100152.551961
100152.551488
100152.550947
100152.550351
100152.549716
100152.549059
100152.548405
100152.547778
100152.547207
100152.546724
100152.546366
100152.546167
100152.546149
100152.546306
100152.546606
100152.546988
100152.54737
100152.547694
100152.547923
100152.548034
100152.548022
100152.547895
100152.547664
100152.547345
100152.546954
100152.54651
100152.546033
100152.54554
100152.545049
100152.544574
100152.544131
100152.543737
100152.543412
100152.543186
100152.543078
100152.5431
100152.54328
100152.543587
100152.543963
100152.544348
100152.544694
100152.544987
100152.54523
100152.545425
100152.545578
100152.545691
100152.545767
100152.545809
100152.54582
100152.545803
100152.545765
100152.545714
100152.545658
100152.545606
100152.545565
100152.545543
100152.545549
100152.545591
100152.545689
100152.545878
100152.546233
100152.54689
100152.548114
100152.550376
100152.554415
100152.561111
100152.571046
100152.583664
100152.59607
100152.601422
100152.527125
100152.527002
100152.527021
100152.526898
100152.526663
100152.526335
100152.525927
100152.525447
100152.524913
100152.524346
100152.523774
100152.523231
100152.522749
100152.522342
100152.522031
100152.521843
100152.521765
100152.521758
100152.521772
100152.521759
100152.521685
100152.52153
100152.521291
100152.520974
100152.52059
100152.520152
100152.519672
100152.51916
100152.518624
100152.518069
100152.517502
100152.516924
100152.51634
100152.515751
100152.515161
100152.514573
100152.513989
100152.513411
100152.51284
100152.512279
100152.511728
100152.511189
100152.510663
100152.510149
100152.509649
100152.509163
100152.50869
100152.508231
100152.507786
100152.507353
100152.506932
100152.506522
100152.506123
100152.505733
100152.505351
100152.504978
100152.504612
100152.504254
100152.503905
100152.503565
100152.503234
100152.502915
100152.502608
100152.502312
100152.502027
100152.501756
100152.501497
100152.501252
100152.501022
100152.500808
100152.500613
100152.500436
100152.500278
100152.500139
100152.500017
100152.499909
100152.499812
100152.49972
100152.499628
100152.49953
100152.49942
100152.499294
100152.499149
100152.498983
100152.498794
100152.498584
100152.498357
100152.498117
100152.497869
100152.497621
100152.497378
100152.497148
100152.496938
100152.496756
100152.496609
100152.496502
100152.496438
100152.496415
100152.496425
100152.496454
100152.496486
100152.496503
100152.496489
100152.496431
100152.49632
100152.496149
100152.49592
100152.495633
100152.495295
100152.49491
100152.49449
100152.494043
100152.493588
100152.493144
100152.492736
100152.492389
100152.492131
100152.491985
100152.491967
100152.492072
100152.492277
100152.492544
100152.492821
100152.493062
100152.493236
100152.493326
100152.493317
100152.493204
100152.492981
100152.492653
100152.492223
100152.491702
100152.491103
100152.490444
100152.489744
100152.489029
100152.488325
100152.487662
100152.487073
100152.486592
100152.486258
100152.486108
100152.486171
100152.486443
100152.486895
100152.487443
100152.487959
100152.488352
100152.488579
100152.488657
100152.488613
100152.488459
100152.488201
100152.487856
100152.487443
100152.486984
100152.486498
100152.486005
100152.48552
100152.485057
100152.484631
100152.484254
100152.483946
100152.48377
100152.483795
100152.484005
100152.484312
100152.484661
100152.485029
100152.485388
100152.485712
100152.485992
100152.486225
100152.486411
100152.486557
100152.486664
100152.486736
100152.486776
100152.486788
100152.486774
100152.486742
100152.486698
100152.48665
100152.486604
100152.486565
100152.486536
100152.486518
100152.486509
100152.486511
100152.486528
100152.486582
100152.48673
100152.48711
100152.488029
100152.490097
100152.494149
100152.500977
100152.510606
100152.521163
100152.526141
100152.467296
100152.4672
100152.467155
100152.466992
100152.466737
100152.466404
100152.466002
100152.46554
100152.465032
100152.464498
100152.463959
100152.463441
100152.462963
100152.462549
100152.462214
100152.461977
100152.461822
100152.461719
100152.461628
100152.461516
100152.461355
100152.46113
100152.460837
100152.460479
100152.460064
100152.4596
100152.459098
100152.458565
100152.458009
100152.457437
100152.456852
100152.456259
100152.455661
100152.455062
100152.454464
100152.45387
100152.453282
100152.452702
100152.452132
100152.451572
100152.451024
100152.450489
100152.449968
100152.449461
100152.448969
100152.448492
100152.448032
100152.447587
100152.447158
100152.446745
100152.446347
100152.445963
100152.445592
100152.445232
100152.444882
100152.44454
100152.444205
100152.443876
100152.443552
100152.443233
100152.442919
100152.44261
100152.442305
100152.442007
100152.441715
100152.441432
100152.441159
100152.440899
100152.440656
100152.440432
100152.44023
100152.440054
100152.439903
100152.43978
100152.439682
100152.439606
100152.439547
100152.439496
100152.439446
100152.439389
100152.439317
100152.439223
100152.439103
100152.438954
100152.438774
100152.438564
100152.438328
100152.43807
100152.437797
100152.437517
100152.43724
100152.436976
100152.436738
100152.436536
100152.436382
100152.436282
100152.436242
100152.436259
100152.436323
100152.436414
100152.436509
100152.436588
100152.43663
100152.436621
100152.436549
100152.436406
100152.436188
100152.435897
100152.435537
100152.435114
100152.434643
100152.43414
100152.43363
100152.433138
100152.432697
100152.432338
100152.432092
100152.431983
100152.432026
100152.432214
100152.432518
100152.432891
100152.433252
100152.433534
100152.433721
100152.433811
100152.433791
100152.433657
100152.433408
100152.433048
100152.432583
100152.432026
100152.431393
100152.430704
100152.429982
100152.429254
100152.42855
100152.427901
100152.427339
100152.426895
100152.426605
100152.426521
100152.426722
100152.427197
100152.427774
100152.428325
100152.428801
100152.429165
100152.429401
100152.429497
100152.429436
100152.429253
100152.428967
100152.428604
100152.428182
100152.427724
100152.427247
100152.426772
100152.426312
100152.425877
100152.425487
100152.42517
100152.424999
100152.424979
100152.42508
100152.42529
100152.425579
100152.42591
100152.426254
100152.426586
100152.426888
100152.427151
100152.427372
100152.427552
100152.427695
100152.427803
100152.42788
100152.427928
100152.42795
100152.42795
100152.427934
100152.427907
100152.427875
100152.427843
100152.427816
100152.427794
100152.427778
100152.427765
100152.427753
100152.42774
100152.427728
100152.42772
100152.427732
100152.427894
100152.428656
100152.430706
100152.434905
100152.441693
100152.450119
100152.454412
100152.407501
100152.407413
100152.407331
100152.407149
100152.406889
100152.406562
100152.406173
100152.405731
100152.405247
100152.404737
100152.40422
100152.403715
100152.403238
100152.402802
100152.402435
100152.402137
100152.401898
100152.401694
100152.4015
100152.401289
100152.401043
100152.400749
100152.400402
100152.400004
100152.399558
100152.399071
100152.39855
100152.398002
100152.397433
100152.396849
100152.396255
100152.395655
100152.395053
100152.394451
100152.393853
100152.393261
100152.392677
100152.392103
100152.391539
100152.390987
100152.390448
100152.389923
100152.389412
100152.388917
100152.388438
100152.387975
100152.38753
100152.387103
100152.386693
100152.386302
100152.385927
100152.385568
100152.385224
100152.384892
100152.38457
100152.384257
100152.38395
100152.383647
100152.383347
100152.383048
100152.382749
100152.382451
100152.382154
100152.381858
100152.381566
100152.38128
100152.381003
100152.38074
100152.380495
100152.380272
100152.380075
100152.379908
100152.379772
100152.379668
100152.379594
100152.379545
100152.379516
100152.379497
100152.379477
100152.379447
100152.379399
100152.379325
100152.379219
100152.37908
100152.378904
100152.378695
100152.378454
100152.378188
100152.377904
100152.377613
100152.377325
100152.377054
100152.376815
100152.376618
100152.376478
100152.3764
100152.37639
100152.376444
100152.376548
100152.376677
100152.376804
100152.376907
100152.376966
100152.376966
100152.376896
100152.376751
100152.376527
100152.376224
100152.375847
100152.375405
100152.374913
100152.374394
100152.373873
100152.373382
100152.372956
100152.372626
100152.372421
100152.372364
100152.372483
100152.372784
100152.37319
100152.373598
100152.373958
100152.374238
100152.374405
100152.374453
100152.37439
100152.374213
100152.373922
100152.373524
100152.373028
100152.372448
100152.371801
100152.37111
100152.370398
100152.369693
100152.369025
100152.368425
100152.36792
100152.367535
100152.367338
100152.367428
100152.367767
100152.368241
100152.368778
100152.369293
100152.369731
100152.370059
100152.370264
100152.370346
100152.370317
100152.370167
100152.369879
100152.36953
100152.369132
100152.368702
100152.368262
100152.367826
100152.367411
100152.367014
100152.366728
100152.366526
100152.366426
100152.366431
100152.366537
100152.36673
100152.366986
100152.367277
100152.367579
100152.367873
100152.368145
100152.368386
100152.368592
100152.368765
100152.368905
100152.369015
100152.369097
100152.369155
100152.36919
100152.369205
100152.369208
100152.369201
100152.369188
100152.369174
100152.369161
100152.369153
100152.369148
100152.369146
100152.369145
100152.369143
100152.369135
100152.369115
100152.369085
100152.369077
100152.369161
100152.369928
100152.372168
100152.376541
100152.38281
100152.386236
100152.347708
100152.347617
100152.347519
100152.347333
100152.34708
100152.346765
100152.346391
100152.345966
100152.3455
100152.345006
100152.344501
100152.344
100152.34352
100152.343072
100152.342669
100152.342313
100152.341995
100152.341702
100152.341415
100152.341117
100152.340794
100152.340436
100152.340038
100152.339601
100152.339126
100152.338618
100152.338082
100152.337523
100152.336947
100152.336359
100152.335764
100152.335165
100152.334566
100152.33397
100152.333379
100152.332796
100152.332223
100152.33166
100152.331109
100152.33057
100152.330045
100152.329535
100152.329039
100152.328559
100152.328096
100152.327649
100152.327221
100152.326811
100152.326419
100152.326046
100152.325691
100152.325351
100152.325027
100152.324716
100152.324416
100152.324124
100152.323838
100152.323555
100152.323273
100152.322991
100152.322708
100152.322423
100152.322137
100152.321851
100152.321567
100152.32129
100152.321023
100152.32077
100152.320537
100152.320329
100152.320149
100152.320001
100152.319887
100152.319805
100152.319754
100152.319728
100152.319719
100152.319717
100152.31971
100152.319688
100152.319644
100152.319571
100152.319465
100152.319323
100152.319146
100152.318935
100152.318694
100152.318429
100152.318148
100152.317863
100152.317586
100152.317331
100152.317112
100152.316942
100152.316832
100152.316787
100152.31681
100152.3169
100152.317042
100152.3172
100152.317331
100152.317424
100152.317464
100152.317439
100152.317343
100152.317172
100152.316924
100152.316601
100152.316208
100152.315758
100152.315266
100152.314754
100152.314251
100152.313789
100152.3134
100152.313114
100152.312956
100152.312977
100152.313197
100152.313551
100152.313956
100152.314356
100152.314703
100152.314971
100152.315137
100152.315169
100152.315074
100152.314866
100152.314548
100152.314127
100152.313618
100152.313034
100152.312396
100152.311726
100152.311049
100152.310391
100152.309781
100152.309248
100152.308815
100152.308529
100152.308462
100152.308623
100152.308948
100152.309378
100152.309849
100152.3103
100152.310686
100152.310978
100152.311164
100152.311241
100152.311212
100152.311077
100152.310878
100152.310585
100152.310241
100152.30987
100152.30949
100152.309119
100152.308779
100152.308506
100152.308257
100152.308094
100152.308018
100152.308028
100152.30812
100152.308281
100152.308493
100152.308736
100152.308992
100152.309245
100152.309484
100152.3097
100152.309891
100152.310054
100152.310191
100152.310302
100152.31039
100152.310456
100152.310504
100152.310535
100152.310553
100152.310563
100152.310566
100152.310568
100152.310569
100152.310572
100152.310577
100152.310585
100152.310594
100152.310603
100152.310611
100152.310617
100152.310618
100152.310607
100152.310572
100152.310681
100152.311647
100152.314223
100152.318578
100152.32112
100152.287903
100152.287806
100152.287705
100152.287526
100152.287285
100152.286983
100152.286623
100152.286211
100152.285759
100152.285278
100152.284786
100152.284294
100152.283809
100152.283344
100152.282907
100152.282498
100152.282115
100152.281748
100152.281386
100152.281016
100152.280628
100152.280216
100152.279776
100152.279306
100152.278807
100152.278283
100152.277737
100152.277174
100152.276598
100152.276013
100152.275424
100152.274834
100152.274246
100152.273663
100152.273086
100152.272519
100152.271961
100152.271415
100152.270882
100152.270361
100152.269854
100152.269361
100152.268883
100152.268421
100152.267975
100152.267546
100152.267134
100152.266739
100152.266362
100152.266003
100152.26566
100152.265333
100152.26502
100152.264719
100152.264429
100152.264146
100152.263869
100152.263596
100152.263325
100152.263053
100152.262781
100152.262507
100152.262234
100152.261961
100152.261693
100152.261433
100152.261184
100152.260953
100152.260744
100152.260562
100152.26041
100152.260291
100152.260205
100152.260151
100152.260125
100152.26012
100152.260126
100152.260132
100152.260126
100152.260099
100152.260044
100152.259958
100152.259837
100152.259682
100152.259495
100152.259276
100152.259032
100152.25877
100152.258497
100152.258225
100152.257967
100152.257735
100152.257544
100152.257405
100152.257325
100152.257312
100152.257377
100152.257511
100152.257673
100152.257833
100152.257971
100152.258051
100152.258067
100152.258016
100152.257893
100152.257694
100152.257422
100152.25708
100152.256678
100152.256228
100152.255748
100152.25526
100152.25479
100152.254368
100152.254025
100152.253786
100152.253687
100152.253777
100152.254025
100152.254365
100152.254745
100152.255114
100152.255434
100152.255679
100152.255833
100152.255877
100152.255785
100152.255581
100152.255272
100152.254866
100152.254378
100152.253824
100152.253225
100152.252604
100152.251984
100152.251393
100152.250857
100152.250401
100152.25005
100152.249873
100152.249865
100152.250011
100152.250282
100152.250636
100152.251023
100152.251397
100152.25172
100152.25197
100152.252134
100152.252208
100152.252194
100152.252097
100152.251934
100152.251715
100152.251447
100152.251149
100152.250842
100152.250547
100152.250277
100152.25005
100152.249863
100152.249739
100152.249682
100152.249694
100152.249769
100152.249899
100152.250071
100152.25027
100152.250483
100152.250698
100152.250904
100152.251096
100152.251269
100152.251422
100152.251553
100152.251663
100152.251754
100152.251826
100152.251883
100152.251925
100152.251957
100152.25198
100152.251997
100152.252011
100152.252024
100152.252037
100152.252051
100152.252066
100152.252083
100152.2521
100152.252118
100152.252135
100152.252151
100152.25216
100152.252156
100152.252138
100152.252387
100152.253731
100152.256579
100152.258356
100152.22809
100152.227987
100152.22789
100152.227725
100152.227497
100152.227207
100152.226859
100152.226459
100152.226021
100152.225557
100152.225078
100152.224587
100152.224096
100152.223613
100152.223145
100152.222696
100152.222262
100152.221839
100152.221419
100152.220994
100152.220558
100152.220106
100152.219633
100152.21914
100152.218626
100152.218094
100152.217547
100152.216987
100152.216419
100152.215846
100152.215271
100152.214697
100152.214127
100152.213563
100152.213006
100152.212459
100152.211923
100152.211398
100152.210885
100152.210385
100152.209898
100152.209425
100152.208966
100152.208522
100152.208094
100152.207682
100152.207285
100152.206905
100152.20654
100152.20619
100152.205855
100152.205533
100152.205223
100152.204924
100152.204633
100152.204349
100152.20407
100152.203795
100152.203522
100152.203251
100152.202981
100152.202713
100152.202447
100152.202185
100152.201931
100152.201688
100152.20146
100152.201252
100152.201068
100152.200914
100152.200791
100152.200702
100152.200646
100152.20062
100152.200619
100152.200638
100152.200663
100152.200681
100152.200678
100152.200646
100152.200581
100152.200482
100152.200347
100152.200179
100152.199979
100152.199752
100152.199505
100152.199244
100152.198978
100152.198719
100152.198479
100152.198269
100152.198102
100152.197988
100152.197933
100152.197953
100152.198046
100152.198184
100152.198342
100152.198494
100152.198621
100152.198703
100152.19872
100152.19866
100152.198529
100152.198325
100152.19805
100152.197711
100152.197318
100152.196885
100152.196432