/*--------------------------------*- C++ -*----------------------------------*\
  =========                 |
  \\      /  F ield         | OpenFOAM: The Open Source CFD Toolbox
   \\    /   O peration     | Website:  https://openfoam.org
    \\  /    A nd           | Version:  12
     \\/     M anipulation  |
\*---------------------------------------------------------------------------*/
FoamFile
{
    format      ascii;
    class       volScalarField;
    location    "10";
    object      p_rgh;
}
// * * * * * * * * * * * * * * * * * * * * * * * * * * * * * * * * * * * * * //

dimensions      [1 -1 -2 0 0 0 0];

internalField   nonuniform List<scalar> 
40000
(
152.854700607
152.855986919
152.856853303
152.857478505
152.857663654
152.857515403
152.857141614
152.85656021
152.855868197
152.855130362
152.854387557
152.853674441
152.853022444
152.852455681
152.851990461
152.85163227
152.851367852
152.851180384
152.851049917
152.850955027
152.850876524
152.850799678
152.850713651
152.850609702
152.850480734
152.850321669
152.850130466
152.849912814
152.849669873
152.849402254
152.849110821
152.848798018
152.848466313
152.848116375
152.847752741
152.847378897
152.846996304
152.846606027
152.846209083
152.845806505
152.845399369
152.844988773
152.844575757
152.844161205
152.843745771
152.843329836
152.842911737
152.842491542
152.842071189
152.841650813
152.841230073
152.840808853
152.840387353
152.839966224
152.839546725
152.839130867
152.838721506
152.838322397
152.837937796
152.837571924
152.837228515
152.836909927
152.836616822
152.836348552
152.83610386
152.835880937
152.835677737
152.835492067
152.835321398
152.835162596
152.835011834
152.834864737
152.834716804
152.834564004
152.834403296
152.834232942
152.834052543
152.83386285
152.833665452
152.833462467
152.833255669
152.833044504
152.83282731
152.832603939
152.832376934
152.832158074
152.831951358
152.83176838
152.83162049
152.831509491
152.831431238
152.831376807
152.831334741
152.831293362
152.83124213
152.831173029
152.831081465
152.830964664
152.830821847
152.830655554
152.830468563
152.830248901
152.829988144
152.829680082
152.829322007
152.8289249
152.828538122
152.828221626
152.827984176
152.827811933
152.827696664
152.827622366
152.827572356
152.827532307
152.827491014
152.827440242
152.827376
152.827296341
152.827200119
152.827086137
152.826952622
152.826797332
152.826618238
152.82641403
152.826184403
152.825932726
152.82566245
152.825377491
152.825082276
152.824780164
152.824472801
152.824160097
152.823840715
152.823512962
152.823175932
152.822830661
152.822481016
152.822133897
152.821799219
152.821489097
152.821216066
152.820990838
152.820819859
152.820703288
152.820634118
152.820599071
152.820581103
152.820562508
152.820527262
152.820462002
152.820356857
152.820205581
152.820005408
152.819756791
152.819463089
152.8191302
152.818766204
152.818381019
152.817986068
152.817593962
152.817218248
152.816873142
152.816572875
152.816330324
152.81615537
152.816053255
152.816022812
152.816056096
152.816140463
152.816261136
152.816402624
152.816550226
152.816691794
152.816818547
152.816924943
152.817008162
152.817067639
152.817104846
152.817123398
152.817129434
152.817132232
152.817145033
152.817186337
152.817281906
152.817466798
152.817786796
152.818304307
152.819122988
152.82043182
152.822496905
152.82554546
152.83009263
152.836785966
152.846417057
152.859881341
152.877890624
152.900051252
152.923104833
152.939853954
152.944034472
152.853001923
152.855788981
152.856897961
152.857508429
152.857670511
152.857528588
152.857167779
152.85662606
152.855973332
152.85526367
152.854537812
152.853832884
152.853184919
152.852626841
152.85217139
152.851812825
152.851545885
152.851358431
152.851229894
152.851136885
152.851058742
152.850981991
152.850898413
152.850800639
152.850682305
152.850539871
152.850373449
152.850185084
152.849972839
152.849731975
152.849461394
152.849163909
152.848842504
152.84848872
152.848115773
152.847731141
152.847334063
152.84692528
152.846506394
152.846079489
152.845646826
152.84521059
152.844772662
152.844334476
152.843896956
152.843460527
152.843024745
152.842589467
152.842155182
152.841721759
152.841288856
152.840856247
152.840424024
152.839992773
152.839563767
152.839139179
152.838722204
152.838316804
152.837927306
152.837558593
152.837214651
152.836897264
152.836606304
152.836340506
152.836097714
152.835875558
152.835671855
152.835484674
152.835312014
152.835151241
152.834998945
152.83485096
152.834702726
152.834549981
152.834389397
152.83421899
152.83403825
152.833848026
152.833650221
152.833447625
152.833243071
152.833036862
152.832828161
152.832614492
152.832393718
152.832164747
152.831942249
152.831744466
152.831583345
152.831463848
152.831382697
152.83133014
152.831292696
152.831256306
152.831209425
152.831144592
152.831056404
152.830941283
152.830797653
152.830626271
152.830430119
152.830216046
152.829975206
152.829693248
152.829365654
152.828988834
152.828580511
152.828200861
152.827914764
152.827729804
152.827615707
152.827544434
152.82749507
152.82745281
152.827407433
152.827353599
152.827287988
152.827208582
152.827114119
152.827003303
152.826873995
152.82672305
152.826547123
152.826344494
152.826116604
152.825864723
152.825591508
152.825301803
152.825000268
152.824690179
152.824373027
152.824048546
152.823715194
152.823371083
152.823015179
152.822648541
152.822275312
152.821903379
152.821544138
152.821211298
152.820919324
152.820680939
152.820504116
152.820389531
152.820329228
152.820307576
152.820304648
152.820299949
152.820274789
152.820214428
152.82010862
152.81995122
152.819739796
152.81947531
152.819161753
152.818805746
152.818416117
152.81800349
152.817579921
152.817158601
152.816753648
152.816380033
152.81605319
152.815787465
152.815594063
152.815479582
152.815443541
152.815476634
152.815563717
152.815688157
152.815832793
152.81598101
152.816119522
152.816239396
152.816335473
152.816405366
152.816448691
152.816466764
152.81646273
152.816441993
152.816412782
152.816386717
152.816379454
152.816411882
152.816512002
152.816716555
152.817074291
152.817662376
152.818618845
152.820148439
152.822610575
152.826360175
152.831959554
152.840161612
152.85184008
152.867702879
152.887496138
152.908597878
152.925018953
152.930657303
152.850024071
152.85519606
152.856899543
152.857571047
152.857699158
152.857535747
152.857175873
152.856665463
152.856050286
152.8553726
152.854670957
152.853983813
152.853348999
152.852799809
152.852355325
152.852001626
152.85174343
152.85157098
152.851462806
152.85139805
152.851363015
152.851350473
152.851357076
152.851367541
152.851354401
152.851280026
152.85112355
152.850916942
152.850671565
152.850391126
152.850079442
152.849739324
152.849371677
152.848976411
152.848558926
152.848124235
152.847675352
152.847215152
152.846746651
152.846272885
152.845796707
152.845320606
152.844846568
152.844376005
152.843909751
152.843448068
152.842990785
152.842537746
152.842088847
152.841643745
152.841201959
152.840763026
152.840326659
152.839892915
152.839462384
152.83903643
152.838617448
152.838208952
152.837815418
152.83744161
152.837091534
152.836767826
152.836471162
152.836200497
152.835953666
152.835728088
152.835521202
152.835330557
152.835153678
152.83498794
152.834830211
152.834676765
152.834523634
152.834367116
152.834204259
152.834033199
152.833853239
152.833664779
152.833469234
152.833268403
152.833063246
152.832854257
152.832641527
152.832425315
152.832207061
152.831989967
152.8317814
152.831590491
152.831425623
152.831291426
152.831186564
152.831104579
152.831036149
152.830971322
152.830901494
152.830820572
152.830724438
152.830610185
152.830475756
152.830319959
152.830141608
152.829936036
152.829697366
152.829428726
152.829128642
152.828804143
152.828467746
152.828141867
152.82785665
152.827626576
152.827444018
152.827293003
152.827158228
152.827028848
152.826899253
152.826769032
152.826641298
152.826520521
152.826410234
152.82631111
152.826219744
152.826128572
152.826027493
152.825906641
152.825758844
152.825579595
152.82536605
152.825117511
152.824834861
152.824519489
152.82417262
152.823795136
152.823387895
152.822952493
152.822492273
152.822013295
152.821525124
152.821041396
152.820579616
152.820160221
152.819804792
152.819532735
152.819356564
152.819277659
152.81928327
152.819346699
152.819433449
152.819509766
152.819548179
152.819529402
152.819441919
152.819280598
152.819045431
152.818740669
152.81837401
152.817955806
152.817498302
152.817014954
152.816519878
152.81602758
152.815553096
152.81511271
152.814724976
152.814409464
152.814182429
152.814054659
152.814027812
152.814087291
152.8142075
152.814364692
152.814538152
152.814707771
152.814858533
152.814982124
152.815074955
152.815136174
152.815166333
152.815166887
152.81514041
152.815091209
152.815026115
152.814955176
152.814891781
152.814852846
152.814861204
152.814949277
152.81516005
152.815573601
152.816265463
152.817346715
152.819059515
152.82174996
152.825916549
152.832258689
152.841642619
152.854845226
152.871886277
152.890906428
152.907148766
152.914619109
152.84658344
152.854460961
152.856878958
152.85763032
152.857713223
152.857509679
152.857139835
152.856641579
152.85604486
152.855382628
152.854688865
152.854000286
152.853356538
152.852804538
152.852355768
152.85199724
152.85174937
152.851622445
152.851605315
152.851687162
152.851839691
152.852009296
152.852151209
152.852215708
152.852181698
152.852051588
152.851842298
152.851574324
152.851259749
152.850906364
152.850519748
152.850103801
152.849661351
152.849195296
152.848710057
152.848210257
152.847699916
152.847182657
152.846661826
152.846140473
152.845621277
152.84510647
152.844597786
152.844096439
152.843603139
152.843118145
152.842641418
152.842172788
152.841711986
152.841258574
152.840812003
152.840371726
152.839937305
152.839508574
152.839085813
152.838669885
152.838262363
152.837865549
152.837482311
152.837115734
152.83676854
152.836442475
152.836138044
152.835854633
152.83559082
152.835344861
152.835115069
152.834899907
152.834697903
152.834507569
152.834327223
152.83415486
152.833988257
152.833825157
152.833663433
152.833501233
152.833337059
152.833169772
152.832998591
152.832822906
152.832641832
152.83245404
152.832257959
152.83205244
152.831837715
152.831616607
152.831395271
152.831181136
152.830980826
152.830798473
152.830634959
152.830488453
152.830355685
152.830233283
152.830118674
152.83001022
152.829906569
152.829805761
152.829704653
152.829598861
152.82948243
152.829346844
152.829183274
152.828984551
152.828746158
152.828471128
152.828170555
152.827860429
152.827555158
152.827261139
152.826976701
152.82669695
152.826418313
152.826141178
152.825870872
152.825617264
152.825393129
152.825211396
152.825081534
152.825006178
152.824979097
152.824984814
152.82500172
152.825007757
152.824983823
152.824915083
152.824791007
152.824604846
152.824352869
152.82403381
152.823648408
152.823199195
152.822690614
152.822129466
152.821525566
152.82089239
152.820247475
152.819612501
152.819012971
152.818477645
152.818037452
152.817721965
152.817551309
152.817527813
152.817631285
152.817817101
152.818027781
152.818211958
152.8183337
152.818369968
152.818308963
152.818147603
152.817889004
152.817541536
152.817117497
152.816631839
152.816100986
152.81554178
152.814970723
152.814403843
152.813857491
152.813350196
152.812905446
152.812550688
152.812304625
152.812175484
152.812165963
152.812252161
152.812395508
152.812574059
152.812773226
152.812966677
152.813132797
152.813263228
152.813356493
152.813413799
152.813436619
152.813426023
152.813383309
152.813311298
152.813215838
152.813107068
152.812998616
152.812905198
152.812843584
152.812834885
152.812906811
152.813082026
152.813408926
152.813975941
152.814932164
152.816526334
152.819164428
152.82347458
152.830316354
152.840590222
152.854695522
152.871599315
152.887779502
152.897447563
152.842959786
152.853696949
152.856924797
152.857755202
152.857790021
152.857552033
152.857171501
152.85667839
152.856094208
152.855443365
152.854754738
152.854063405
152.853411247
152.852848339
152.852400998
152.852085743
152.85194288
152.851954112
152.852095063
152.852322437
152.852571451
152.85277587
152.852887257
152.852881058
152.852759852
152.852541082
152.852245365
152.851890256
152.851488163
152.851047863
152.850575853
152.850077186
152.849556177
152.849017062
152.848464342
152.84790239
152.847335134
152.846766043
152.846198167
152.84563416
152.845076292
152.844526447
152.843986127
152.843456482
152.842938317
152.842432151
152.841938293
152.84145687
152.840987834
152.840530918
152.840085604
152.839651207
152.839226931
152.83881197
152.838405715
152.838007896
152.837618718
152.837238966
152.836869882
152.836512873
152.836169198
152.835839608
152.83552419
152.835222495
152.834933804
152.834657438
152.834393045
152.834140713
152.833900893
152.833674246
152.833461416
152.833262805
152.833078413
152.832907709
152.8327495
152.83260183
152.832461953
152.832326454
152.832191493
152.832053006
152.831906893
152.831749268
152.831576764
152.831386927
152.831178695
152.830953059
152.830713466
152.830465066
152.830213636
152.82996463
152.829722787
152.829492292
152.829277205
152.829081841
152.828910727
152.828767914
152.828655733
152.828573359
152.828515804
152.828473961
152.828435575
152.828386572
152.828312978
152.828202188
152.828044438
152.827834902
152.827574486
152.82726885
152.826924858
152.826547587
152.826140862
152.825709788
152.825263156
152.824814744
152.824383334
152.823991585
152.823663996
152.823423705
152.823287218
152.823258305
152.82332497
152.82345924
152.823622031
152.823775359
152.823888192
152.823936836
152.823903209
152.823775026
152.823545249
152.823211425
152.822775158
152.822241789
152.821620304
152.820923464
152.820168077
152.819375265
152.818570468
152.81778314
152.817046466
152.816397677
152.815878089
152.815529058
152.815378172
152.815423824
152.815638683
152.815960884
152.816307912
152.816613634
152.816833301
152.81693481
152.816907436
152.816754045
152.816482314
152.816105438
152.81564037
152.815106446
152.814523908
152.813912493
152.813290507
152.81267494
152.812082763
152.811531793
152.8110428
152.810646051
152.810360233
152.810198725
152.810192913
152.810326512
152.810551738
152.810812733
152.811058943
152.811269144
152.811439693
152.811570528
152.811664041
152.811723186
152.811750268
152.811746748
152.811714065
152.811654951
152.811574235
152.811478425
152.811375612
152.811275288
152.811186573
152.811118308
152.811080835
152.811087063
152.811157681
152.811335797
152.811703305
152.812413548
152.813754204
152.816239977
152.820679851
152.828067253
152.839168772
152.853752294
152.869582384
152.881487236
152.839234571
152.852984866
152.85706649
152.857962799
152.857963403
152.857709429
152.857331563
152.856856351
152.856299521
152.855681839
152.855032348
152.854390336
152.853800467
152.853296647
152.852900488
152.852658671
152.852582715
152.852651612
152.852822516
152.853034353
152.853219833
152.853324337
152.853317477
152.853192952
152.852961453
152.852640767
152.852248979
152.851801266
152.85130945
152.850782667
152.850228137
152.849651781
152.84905872
152.84845365
152.847840972
152.847224684
152.84660828
152.84599476
152.84538668
152.844786216
152.844195231
152.843615317
152.843047836
152.842493966
152.841954718
152.841430936
152.840923329
152.840432407
152.839958425
152.83950134
152.839060718
152.838635745
152.838225282
152.837827914
152.837442088
152.837066272
152.836699065
152.836339328
152.835986238
152.835639232
152.835297899
152.834961893
152.834630942
152.834304951
152.833984194
152.833669529
152.833362535
152.833065523
152.832781446
152.832513672
152.832265612
152.832040309
152.831840042
152.831665902
152.831517368
152.831391977
152.831285239
152.831190851
152.831101236
152.831008243
152.83090383
152.830780636
152.830632551
152.83045519
152.830246261
152.83000584
152.829736418
152.829442578
152.829130619
152.828808259
152.82848449
152.828169491
152.827874423
152.827610941
152.827390302
152.827221993
152.827111888
152.827060091
152.827059077
152.82709367
152.827143517
152.827186414
152.827200907
152.827168058
152.827072867
152.826905087
152.826659334
152.826334574
152.825933087
152.825459944
152.824923758
152.824338095
152.823722623
152.823103386
152.82251195
152.82198361
152.821555187
152.821261477
152.821127383
152.821156965
152.821331735
152.821613374
152.821943051
152.822263266
152.822528439
152.82270619
152.822770957
152.822706093
152.822502976
152.8221599
152.821681069
152.821075861
152.82035836
152.819547115
152.818665037
152.817739255
152.816800749
152.815883774
152.815025732
152.814268244
152.813656699
152.813237161
152.813049663
152.813099783
152.813373993
152.813816958
152.814309322
152.814746998
152.815057953
152.815223344
152.815251379
152.815149523
152.814916755
152.814566785
152.814118398
152.813593375
152.813014493
152.812403563
152.811780123
152.811161254
152.810562959
152.809998213
152.809485592
152.809082138
152.808867165
152.808846435
152.808952693
152.809130866
152.809353741
152.809589568
152.80981076
152.81000239
152.810158913
152.810279146
152.810364255
152.810416207
152.810436997
152.810428615
152.810393446
152.810334854
152.810257436
152.810166262
152.810066856
152.809964809
152.809865022
152.809771143
152.809685554
152.809610448
152.809550793
152.809518432
152.809544372
152.809704998
152.810171324
152.811308913
152.813825863
152.818714854
152.827007447
152.839173326
152.854284003
152.868311769
152.83543838
152.852357225
152.857270245
152.858224295
152.858211068
152.857963838
152.857612631
152.857180427
152.85668052
152.856132213
152.855562328
152.855002144
152.85448211
152.85403286
152.853678948
152.8534624
152.853378196
152.853399275
152.853479621
152.853563156
152.853597353
152.853545548
152.85339121
152.853134648
152.852786351
152.852360738
152.851872357
152.851334105
152.850756859
152.850149662
152.849520046
152.848874358
152.848218048
152.847555877
152.846892014
152.846230042
152.845572974
152.844923301
152.844283089
152.843654071
152.843037749
152.842435489
152.841848572
152.841278235
152.840725689
152.840192064
152.83967836
152.839185346
152.838713412
152.838262486
152.837831938
152.837420535
152.837026484
152.836647531
152.836281089
152.835924396
152.835574695
152.835229367
152.834886027
152.83454263
152.834197549
152.833849633
152.833498368
152.833144077
152.832788071
152.832432793
152.832081883
152.831740088
152.831413025
152.831106838
152.830827686
152.83058111
152.830371377
152.830200815
152.830069141
152.829972911
152.829905336
152.829856696
152.829815306
152.829768754
152.82970504
152.829613483
152.829485383
152.8293145
152.829097338
152.828833321
152.828524822
152.828177071
152.827798046
152.827398438
152.826991611
152.826593401
152.826221525
152.825894541
152.825630439
152.825444808
152.825348162
152.825342383
152.825417169
152.825549467
152.825708591
152.825862271
152.82597925
152.826032308
152.826000003
152.82586739
152.825625837
152.82527237
152.824809123
152.824243395
152.823588377
152.822863994
152.82209734
152.82132233
152.820578338
152.819907988
152.819354711
152.818959358
152.818754979
152.818754554
152.818948418
152.81930996
152.819772088
152.820245923
152.820672944
152.821018134
152.821240303
152.821310178
152.821210853
152.820937403
152.820495248
152.819898131
152.819166326
152.818325284
152.817404653
152.816437471
152.815459288
152.814507129
152.813618231
152.812830001
152.812184038
152.811737347
152.811577264
152.811723476
152.812038298
152.812388998
152.812720537
152.812995016
152.813199353
152.8133267
152.813352812
152.813276258
152.813097105
152.812823703
152.812463925
152.812031682
152.811544763
152.811022119
152.810481431
152.809936127
152.809409665
152.808924238
152.808550653
152.808318978
152.808212993
152.808227952
152.808334482
152.808498594
152.808691777
152.808888677
152.809070334
152.809226192
152.809352187
152.809447984
152.809515047
152.80955534
152.809570683
152.809562693
152.809533164
152.809484775
152.809421688
152.809347623
152.809266728
152.80918253
152.809096992
152.809009882
152.808919342
152.808822892
152.808718715
152.80860722
152.808494623
152.808401611
152.80838821
152.80867113
152.809856714
152.812830601
152.81873489
152.828580556
152.842692875
152.858664968
152.831581525
152.851790478
152.857477714
152.858491041
152.858478973
152.858250963
152.857937835
152.857559178
152.857125086
152.85665062
152.85615607
152.855664835
152.855197764
152.854774523
152.854438472
152.854198565
152.854045989
152.8539548
152.853886642
152.853799556
152.853657855
152.853438781
152.853133465
152.85274386
152.852278357
152.851748106
152.851164747
152.850539239
152.84988142
152.849199907
152.848502158
152.847794576
152.847082642
152.846371015
152.845663601
152.844963607
152.844273609
152.843595647
152.842931351
152.842282079
152.841649049
152.841033467
152.840436603
152.839859818
152.839304552
152.838772228
152.838264098
152.837781065
152.837323471
152.836890909
152.836482104
152.836094901
152.835726305
152.83537266
152.835029903
152.834693793
152.834360166
152.834025164
152.833685374
152.833337953
152.832980788
152.832612628
152.832233252
152.83184369
152.831446403
152.831045401
152.830646265
152.830256028
152.829882895
152.829535815
152.829223834
152.828955302
152.828737011
152.828573265
152.82846482
152.828407807
152.828393145
152.828407003
152.828432326
152.828450896
152.828445322
152.828400489
152.828304539
152.828149365
152.827930713
152.827648071
152.827304488
152.826906406
152.826463569
152.825989001
152.825498944
152.825012584
152.824551407
152.82413819
152.823795857
152.823545989
152.823406132
152.823386087
152.823482822
152.823676061
152.823932751
152.824215027
152.824478282
152.824680125
152.824784335
152.824764108
152.824603456
152.824296938
152.823848587
152.823270911
152.822584288
152.821816587
152.821002642
152.820183204
152.819402753
152.818705427
152.818130777
152.817715676
152.817501781
152.817508328
152.817679184
152.817923521
152.818194911
152.818477732
152.818758194
152.81901231
152.819220828
152.819344981
152.819349605
152.819208384
152.81890758
152.818447433
152.81784122
152.81711292
152.816294395
152.815422773
152.814538
152.813680455
152.812886026
152.812186659
152.811648007
152.811368972
152.811342017
152.811472426
152.811694808
152.811931369
152.812129814
152.812257413
152.81230033
152.81225889
152.812149118
152.811970318
152.811688769
152.811364789
152.810998595
152.810596913
152.81016916
152.809726129
152.809277935
152.808822096
152.808443313
152.808117166
152.807877864
152.807734856
152.80768859
152.80772963
152.807836577
152.80798524
152.80815364
152.808323091
152.808479662
152.808614936
152.808725068
152.808809244
152.808868348
152.808904038
152.80891825
152.808912965
152.808890013
152.808851929
152.808805482
152.808750947
152.808691336
152.808628945
152.808564942
152.808499227
152.808430271
152.808355371
152.808271286
152.808174103
152.808057981
152.807915693
152.807754199
152.807678183
152.808062673
152.809756245
152.813860106
152.821733594
152.834788847
152.852550427
152.827662625
152.851225736
152.857635755
152.858716852
152.858709275
152.85849651
152.85821342
152.857876479
152.85749168
152.857068919
152.85662214
152.856167665
152.855732404
152.855330309
152.854978975
152.854682139
152.854430814
152.854204462
152.853975533
152.853715986
152.853403386
152.853024277
152.852574183
152.852055539
152.851475089
152.850841732
152.850165081
152.849454614
152.848719224
152.847967001
152.847205136
152.846439909
152.845676697
152.844920011
152.844173528
152.843440142
152.842722053
152.842020886
152.841337836
152.840673854
152.840029816
152.839406689
152.83880566
152.838228203
152.837676051
152.837151116
152.836655277
152.836190085
152.835756441
152.835354236
152.834982032
152.834636917
152.834314497
152.834009085
152.83371412
152.833422684
152.833128031
152.832824087
152.832505803
152.832169377
152.831812382
152.831433822
152.831034194
152.830615549
152.830181537
152.829737437
152.829290127
152.82884793
152.828420368
152.828017798
152.827650919
152.827330149
152.82706502
152.826863525
152.82673094
152.826668042
152.826669507
152.826723306
152.82681147
152.826911852
152.827000619
152.827054548
152.827053597
152.826982837
152.826833386
152.8266025
152.826293096
152.825913048
152.825474492
152.824993185
152.82448785
152.823979368
152.823489671
152.823040209
152.822650291
152.822336305
152.822113076
152.821992639
152.821978088
152.822057231
152.822202563
152.822403785
152.822634848
152.822865467
152.823057862
152.823172185
152.823173019
152.823035252
152.822747872
152.822315238
152.821756138
152.821101467
152.820391323
152.819671901
152.818991197
152.818391538
152.817907335
152.817590927
152.817463581
152.817472189
152.817546196
152.817639777
152.817719231
152.817770903
152.817785837
152.817755658
152.817686337
152.817587232
152.817444788
152.817240407
152.816955067
152.816574849
152.816095107
152.815522543
152.814874901
152.814179303
152.813468818
152.812779065
152.812142091
152.811605255
152.81122286
152.81103367
152.81099932
152.811078293
152.811218266
152.81136608
152.811481571
152.811539386
152.811525467
152.811434427
152.811266307
152.811018277
152.810738237
152.810392607
152.810011298
152.809609958
152.809200914
152.808795496
152.808410195
152.808070464
152.80773779
152.807481985
152.807303321
152.807204448
152.807182065
152.807226332
152.807321739
152.807450595
152.807596146
152.807744064
152.807883471
152.808007239
152.808111502
152.808194778
152.808257155
152.808299628
152.808323689
152.808331136
152.808323967
152.808304589
152.808275885
152.808240097
152.808199521
152.808155961
152.808110462
152.808063171
152.808013227
152.807958846
152.807897504
152.807825796
152.807738802
152.807630403
152.807502914
152.807409617
152.807544198
152.808491937
152.811380922
152.817807265
152.82999181
152.849473406
152.823675294
152.850602334
152.857712533
152.858873321
152.85886174
152.858645148
152.858367954
152.858045032
152.857679405
152.857277847
152.856852508
152.856429581
152.856006468
152.855593948
152.85520086
152.854828055
152.854467972
152.854106124
152.853724495
152.853305744
152.852836719
152.852310152
152.8517245
152.851082707
152.850390692
152.849656058
152.848887152
152.848092431
152.847280061
152.846457665
152.845632164
152.844809692
152.843995533
152.843194103
152.842408953
152.841642792
152.840897569
152.840174583
152.83947464
152.838798238
152.83814577
152.837517719
152.83691482
152.836338206
152.835789438
152.835270475
152.834783563
152.834330975
152.833914677
152.833535933
152.833194822
152.832889809
152.832617408
152.832372032
152.832146109
152.83193052
152.831715315
152.831490611
152.831247488
152.830978778
152.830679597
152.830347597
152.829982966
152.829588285
152.829168255
152.82872938
152.828279613
152.827827947
152.827383965
152.826957366
152.826557473
152.826192778
152.825870758
152.825598134
152.825380943
152.825223583
152.82512797
152.825092211
152.825109577
152.825168247
152.825252489
152.82534198
152.82541412
152.825446805
152.825421223
152.825324174
152.825149528
152.82489868
152.8245801
152.824208221
152.823801866
152.823382389
152.822971464
152.822587998
152.822245083
152.821952651
152.821725612
152.821567682
152.821459228
152.821383586
152.821337524
152.821304463
152.821287543
152.821290828
152.821306092
152.8213162
152.82129604
152.821217265
152.821054893
152.820793707
152.82043246
152.819985006
152.819478671
152.818950598
152.818441509
152.817987134
152.817621899
152.817378102
152.817245846
152.817187685
152.817172881
152.817169397
152.81715087
152.817099955
152.817007279
152.816859961
152.816638604
152.816360379
152.816036692
152.815672957
152.815270867
152.814829214
152.814346158
152.813823158
152.813267819
152.812695213
152.812124034
152.81157783
152.811083357
152.81069455
152.810421752
152.810276576
152.810243675
152.810293079
152.810386313
152.810484062
152.810554709
152.810579794
152.810546849
152.810450281
152.81028924
152.810066409
152.809794137
152.809482214
152.809140778
152.808782444
152.808419522
152.808065263
152.807730002
152.8074313
152.807168082
152.806960909
152.806816293
152.806735853
152.806716411
152.806750243
152.806826145
152.806931228
152.807052826
152.807179785
152.80730323
152.807416858
152.807516735
152.807600826
152.807668471
152.807719931
152.807756065
152.807778125
152.807787663
152.80778647
152.807776547
152.807759838
152.807738167
152.807713041
152.807685487
152.807655939
152.807624176
152.807589308
152.807549699
152.807502613
152.807443569
152.80736766
152.807284138
152.807264401
152.807488763
152.808233929
152.810385224
152.815849581
152.82750034
152.848725195
152.819613709
152.849878742
152.857702181
152.858956246
152.8589241
152.85867544
152.858371848
152.858029642
152.857651355
152.857251907
152.856845425
152.856417294
152.855973737
152.855522243
152.855066886
152.85460685
152.85413634
152.853645822
152.853124292
152.852561801
152.851951404
152.851290016
152.850578267
152.849819772
152.849020241
152.848186677
152.847326746
152.846448298
152.845559034
152.844666257
152.843776698
152.842896381
152.84203054
152.841183549
152.840358902
152.839559225
152.838786322
152.838041287
152.837324642
152.836636509
152.835976808
152.835345463
152.834742569
152.834168552
152.833624274
152.833111049
152.832630621
152.83218504
152.831776447
152.831406793
152.831077461
152.830788846
152.830539898
152.830327713
152.83014725
152.829991255
152.829850495
152.829714326
152.829571567
152.829411545
152.829225182
152.829005894
152.828750188
152.828457873
152.828131906
152.827777929
152.827403597
152.827017763
152.826629586
152.82624766
152.825879207
152.825529327
152.825200594
152.824894325
152.824613745
152.824363162
152.824148333
152.823975219
152.823840521
152.823740033
152.823673836
152.823636564
152.823618903
152.823607923
152.823588318
152.823544529
152.823463281
152.823335864
152.823159646
152.822938532
152.822682298
152.822404992
152.822122315
152.821847267
152.821587428
152.821351573
152.82114173
152.820961628
152.820803995
152.820660472
152.820524864
152.820388986
152.820244687
152.820079321
152.819906872
152.819730168
152.819548361
152.819355263
152.819140325
152.818892213
152.818603261
152.818273258