/*--------------------------------*- C++ -*----------------------------------*\
  =========                 |
  \\      /  F ield         | OpenFOAM: The Open Source CFD Toolbox
   \\    /   O peration     | Website:  https://openfoam.org
    \\  /    A nd           | Version:  12
     \\/     M anipulation  |
\*---------------------------------------------------------------------------*/
FoamFile
{
    format      ascii;
    class       surfaceScalarField;
    location    "10";
    object      phi;
}
// * * * * * * * * * * * * * * * * * * * * * * * * * * * * * * * * * * * * * //

dimensions      [1 0 -1 0 0 0 0];

internalField   nonuniform List<scalar> 
79600
(
-1.72860477561e-05
1.72264128904e-05
-1.92624439291e-05
1.90869931224e-06
-1.42996381138e-05
-5.02426905473e-06
-6.1741337238e-06
-8.18113520459e-06
2.48773753192e-06
-8.71332793294e-06
1.00533540216e-05
-7.61067374123e-06
1.62404902493e-05
-6.23049109106e-06
2.13314399839e-05
-5.13321541888e-06
2.55037379888e-05
-4.21375577694e-06
2.88126852967e-05
-3.34969569731e-06
3.12540089072e-05
-2.48127858419e-06
3.28095674558e-05
-1.59445514983e-06
3.34877079691e-05
-7.15547791356e-07
3.33657680817e-05
8.64387831934e-08
3.25173623371e-05
8.15416915059e-07
3.11150406346e-05
1.37233469564e-06
2.92911077571e-05
1.79739177906e-06
2.72267015537e-05
2.04170280317e-06
2.51178607203e-05
2.09024232783e-06
2.31421822318e-05
1.96125425303e-06
2.14376375475e-05
1.69414174253e-06
2.01017950589e-05
1.32910157893e-06
1.91808489443e-05
9.17333602836e-07
1.86518987525e-05
5.27826307401e-07
1.84218243063e-05
2.30814798642e-07
1.83587012972e-05
6.52174898466e-08
1.83583624377e-05
3.35383608713e-09
1.83614808034e-05
3.67913299197e-10
1.83185676727e-05
4.64250485661e-08
1.81727198842e-05
1.49043223266e-07
1.78780579976e-05
2.97369993457e-07
1.74079046464e-05
4.72352286124e-07
1.67492512202e-05
6.60387724842e-07
1.59073160934e-05
8.43355017585e-07
1.49140633499e-05
9.94477215215e-07
1.38045349203e-05
1.1105373924e-06
1.26052233346e-05
1.20001973468e-06
1.13364829197e-05
1.26901681617e-06
1.00146158304e-05
1.32156122426e-06
8.65367381026e-06
1.35992523322e-06
7.26670003466e-06
1.3851765408e-06
5.86742735358e-06
1.39670350763e-06
4.47021035899e-06
1.39395396087e-06
3.09063231562e-06
1.37574866589e-06
1.74590420574e-06
1.3404840058e-06
4.52368904709e-07
1.28903510081e-06
-7.68494750223e-07
1.21581596259e-06
-1.90611679588e-06
1.13252857143e-06
-2.94893604145e-06
1.03797054753e-06
-3.88763449108e-06
9.34161023301e-07
-4.71613541157e-06
8.24320392055e-07
-5.43254115243e-06
7.1260973752e-07
-6.03970461155e-06
6.03762478158e-07
-6.54559878856e-06
5.02882786372e-07
-6.96340723287e-06
4.15167164624e-07
-7.31144219494e-06
3.45732537913e-07
-7.61282646714e-06
2.99380521048e-07
-7.89442767093e-06
2.79849821377e-07
-8.18156222654e-06
2.85586815757e-07
-8.49978950766e-06
3.16834946211e-07
-8.86904959504e-06
3.67978886757e-07
-9.29894731831e-06
4.2869095939e-07
-9.79004915621e-06
4.89943219526e-07
-1.03405205187e-05
5.49344909881e-07
-1.09470893993e-05
6.05466650907e-07
-1.16056237838e-05
6.57454099217e-07
-1.2311644908e-05
7.0496385668e-07
-1.30587675125e-05
7.46090906392e-07
-1.3835936234e-05
7.76165827258e-07
-1.46252210505e-05
7.88314326011e-07
-1.54016955662e-05
7.75540478184e-07
-1.61357926795e-05
7.33203863823e-07
-1.67979237512e-05
6.61282565903e-07
-1.73637363032e-05
5.650115064e-07
-1.78182112153e-05
4.53721974651e-07
-1.81575809973e-05
3.38662919709e-07
-1.83890468732e-05
2.30800390454e-07
-1.85287939387e-05
1.39116367977e-07
-1.85987246797e-05
6.93276889051e-08
-1.86223923451e-05
2.30871881429e-08
-1.86206929202e-05
-2.25692905436e-09
-1.85957656552e-05
-2.54576419342e-08
-1.85509555543e-05
-4.53146903841e-08
-1.84928309364e-05
-5.86061508721e-08
-1.84470254588e-05
-4.62765179549e-08
-1.84760768527e-05
2.85707604335e-08
-1.86463581046e-05
1.69801104147e-07
-1.90479249418e-05
4.01072127066e-07
-1.9719836777e-05
6.71387508356e-07
-2.06516690483e-05
9.31265669293e-07
-2.17933458123e-05
1.14105792763e-06
-2.30649780199e-05
1.27095331929e-06
-2.43726976688e-05
1.30697410927e-06
-2.56238502364e-05
1.25033506601e-06
-2.67393328418e-05
1.11459125592e-06
-2.766640734e-05
9.26114084085e-07
-2.83747943267e-05
7.07372497296e-07
-2.88558079489e-05
4.79971597484e-07
-2.91240397107e-05
2.67199307904e-07
-2.92159379752e-05
9.09254497842e-08
-2.91741303517e-05
-4.26332072511e-08
-2.90049905683e-05
-1.69736677541e-07
-2.87026057326e-05
-3.02767222633e-07
-2.82731554993e-05
-4.2967537681e-07
-2.77589401086e-05
-5.14400445862e-07
-2.72790690577e-05
-4.8020554142e-07
-2.70719928377e-05
-2.07769692227e-07
-2.74272983816e-05
3.54309664462e-07
-2.84839116686e-05
1.05540489597e-06
-3.018268277e-05
1.69730081392e-06
-3.23991214588e-05
2.21468422911e-06
-3.49977713492e-05
2.59661877867e-06
-3.78471798072e-05
2.84714714932e-06
-4.08182921752e-05
2.96871173099e-06
-4.37819769475e-05
2.96126838467e-06
-4.66183297907e-05
2.83404459017e-06
-4.92206232002e-05
2.60018089793e-06
-5.15020345352e-05
2.27952506519e-06
-5.34063803585e-05
1.90266224361e-06
-5.49148126037e-05
1.50689329907e-06
-5.60476859785e-05
1.13140848079e-06
-5.68619554741e-05
8.12810814588e-07
-5.74444349398e-05
5.80968545793e-07
-5.79023330349e-05
4.56286731198e-07
-5.83564928115e-05
4.52408644027e-07
-5.89279797173e-05
5.69564773875e-07
-5.97226219488e-05
7.92525721258e-07
-6.08369386339e-05
1.11199030465e-06
-6.23466545844e-05
1.50717463636e-06
-6.43019692656e-05
1.95256654393e-06
-6.6726157203e-05
2.42125570963e-06
-6.96156319774e-05
2.88639527498e-06
-7.29412583963e-05
3.32244743588e-06
-7.66508779918e-05
3.70639469696e-06
-8.06729283001e-05
4.01883255501e-06
-8.49209093828e-05
4.24481749975e-06
-8.92983031606e-05
4.37432188734e-06
-9.37043543703e-05
4.40309780666e-06
-9.80400677863e-05
4.33289546858e-06
-0.000102212945578
4.17020457255e-06
-0.000106143499762
3.92802975946e-06
-0.000109772392668
3.62651863013e-06
-0.000113067342274
3.29272671825e-06
-0.000116028252507
2.95884248535e-06
-0.000118688823829
2.65866741389e-06
-0.000121112863218
2.42231504879e-06
-0.000123384759752
2.27037565927e-06
-0.000125596480464
2.210435429e-06
-0.000127834662898
2.2371725272e-06
-0.000130173065023
2.33771375569e-06
-0.000132667788173
2.49440714997e-06
-0.000135355480983
2.68780299472e-06
-0.000138254029379
2.89913988312e-06
-0.000141364678981
3.11177748763e-06
-0.000144674910551
3.31194971595e-06
-0.000148161608711
3.48905818044e-06
-0.000151794165453
3.63560737709e-06
-0.000155537213631
3.74683481078e-06
-0.000159352747068
3.82009737588e-06
-0.000163201477961
3.85410864902e-06
-0.000167043505937
3.84825067778e-06
-0.000170838598643
3.80218514384e-06
-0.000174546845477
3.71622637002e-06
-0.000178130794478
3.59282504074e-06
-0.000181559002884
3.43798245194e-06
-0.000184809579432
3.2612424801e-06
-0.000187873734993
3.0757001562e-06
-0.000190758363172
2.89703210879e-06
-0.000193484241379
2.73911697028e-06
-0.00019608037289
2.6101757225e-06
-0.00019857891174
2.51335399606e-06
-0.000201012108127
2.44874234385e-06
-0.00020340962202
2.41374451969e-06
-0.000205796533807
2.40377523438e-06
-0.000208192736021
2.41364146502e-06
-0.000210613307436
2.43852464677e-06
-0.000213069103279
2.47419705642e-06
-0.00021556698524
2.51666180835e-06
-0.000218109495675
2.561596724e-06
-0.000220694088393
2.60391079624e-06
-0.000223312159333
2.63754415414e-06
-0.000225948099849
2.65549053227e-06
-0.000228578317011
2.64976474123e-06
-0.000231169495129
2.61064437705e-06
-0.00023367503178
2.52484421949e-06
-0.000236029498299
2.37354093765e-06
-0.000238141278946
2.13055163616e-06
-0.000239883384518
1.76050815195e-06
-0.000241053984486
1.18857552362e-06
-0.000241206091264
1.69603171725e-07
-0.000240126003308
-1.06312091301e-06
-0.000237167487543
-2.94182145135e-06
-0.000231461131411
-5.68989958583e-06
-0.000221836006048
-9.6088705724e-06
-0.000206768842598
-1.50510633481e-05
-0.000184407283641
-2.23455559762e-05
-0.00015268282034
-3.1708494474e-05
-0.000109711274783
-4.29555538343e-05
-5.56079980997e-05
-5.40872508362e-05
-5.55921013028e-05
-1.29171580462e-05
3.00941141018e-05
-1.60733079639e-05
5.01549288683e-06
-1.17197067157e-05
-9.41583406789e-06
-4.64365054616e-06
-1.5287095749e-05
2.57810267107e-06
-1.59603049144e-05
9.20755760581e-06
-1.42612126775e-05
1.51270884147e-05
-1.21703069289e-05
2.03921532262e-05
-1.04185284915e-05
2.50303405845e-05
-8.87253976153e-06
2.90396957301e-05
-7.38021332274e-06
3.23931050126e-05
-5.85650748299e-06
3.50470685929e-05
-4.27086530872e-06
3.69434953017e-05
-2.63486750486e-06
3.80306505193e-05
-1.02351964359e-06
3.83236289088e-05
5.00013461367e-07
3.7734619718e-05
1.94003052472e-06
3.64306130539e-05
3.08191888119e-06
3.46017601812e-05
3.85357481147e-06
3.24515312511e-05
4.2265247795e-06
3.0171931951e-05
4.23034089185e-06
2.79052366322e-05
3.95409138671e-06
2.57648161842e-05
3.4668072308e-06
2.38083749447e-05
2.87509078291e-06
2.20030268853e-05
2.33806465177e-06
2.02290615326e-05
2.01248216675e-06
1.83128345221e-05
1.99136899479e-06
1.61748880017e-05
2.1533086659e-06
1.37972149167e-05
2.39152627272e-06
1.11942932652e-05
2.66310433859e-06
8.41620840427e-06
2.93999031432e-06
5.52605226022e-06
3.19896114261e-06
2.58383773712e-06
3.42466553253e-06
-3.52050478993e-07
3.60487678766e-06
-3.24829243023e-06
3.74492214764e-06
-6.10779859674e-06
3.85844782567e-06
-8.94015280037e-06
3.94649623788e-06
-1.17426129625e-05
4.00520245423e-06
-1.45072316346e-05
4.03549019505e-06
-1.72234835331e-05
4.03884733e-06
-1.98793810921e-05
4.01611166992e-06
-2.24617873767e-05
3.9672203843e-06
-2.49572054176e-05
3.8912118689e-06
-2.73513018119e-05
3.78669869799e-06
-2.96294617628e-05
3.65221847217e-06
-3.17777719525e-05
3.48686242781e-06
-3.37814928023e-05
3.29066591289e-06
-3.56326977864e-05
3.06483855647e-06
-3.73174291647e-05
2.81507146615e-06
-3.88279283488e-05
2.54631542994e-06
-4.01608657144e-05
2.26499952727e-06
-4.13179632695e-05
1.97938045794e-06
-4.23066612049e-05
1.69932355533e-06
-4.31407432602e-05
1.43589405478e-06
-4.3840821131e-05
1.20101510485e-06
-4.44344848881e-05
1.00685628978e-06
-4.49558475119e-05
8.65056531269e-07
-4.54443724541e-05
7.85773690404e-07
-4.5942760228e-05
7.75997503287e-07
-4.64967439912e-05
8.37230656962e-07
-4.7146601073e-05
9.64291423644e-07
-4.79233485987e-05
1.14233327553e-06
-4.88488581518e-05
1.35190043884e-06
-4.99329300425e-05
1.57189246286e-06
-5.1168948103e-05
1.78348452011e-06
-5.25369057833e-05
1.97182957398e-06
-5.40069100907e-05
2.12615738271e-06
-5.5541389325e-05
2.2384201981e-06
-5.70979417906e-05
2.30186400197e-06
-5.86326747335e-05
2.31031661785e-06
-6.01040648164e-05
2.25926698502e-06
-6.14761194543e-05
2.14724696031e-06
-6.27197388223e-05
1.97650759334e-06
-6.38143116341e-05
1.75551556211e-06
-6.4749202089e-05
1.49948373427e-06
-6.55250376382e-05
1.22901355435e-06
-6.61545628433e-05
9.67483505841e-07
-6.66625856838e-05
7.37940487681e-07
-6.7084611983e-05
5.60085363701e-07
-6.74645179968e-05
4.48026815847e-07
-6.78519080898e-05
4.09164279245e-07
-6.82960713707e-05
4.4054251692e-07
-6.88574308802e-05
5.34545172507e-07
-6.95874565269e-05
6.83408717786e-07
-7.0527058658e-05
8.79778301865e-07
-7.16956405512e-05
1.12118398849e-06
-7.30760134723e-05
1.40790869074e-06
-7.46455363437e-05
1.73836356603e-06
-7.63533144804e-05
2.10799796349e-06
-7.81670787451e-05
2.48445450181e-06
-8.00584447035e-05
2.82210910669e-06
-8.19897023692e-05
3.07194402985e-06
-8.39118400959e-05
3.19280661938e-06
-8.5767546454e-05
3.16239233361e-06
-8.7496488034e-05
2.97888319326e-06
-8.90419209024e-05
2.65942754415e-06
-9.0354256474e-05
2.2375675113e-06
-9.14041836768e-05
1.75607424028e-06
-9.21879311169e-05
1.26211787108e-06
-9.27261268917e-05
8.03411052496e-07
-9.30610116241e-05
4.23461902349e-07
-9.32625133137e-05
1.56197823871e-07
-9.345306847e-05
1.79233611793e-08
-9.37640477703e-05
5.19080037192e-09
-9.43487028984e-05
1.51985535314e-07
-9.53176704478e-05
4.51682398508e-07
-9.67133752444e-05
9.12741714394e-07
-9.84739879269e-05
1.55021467048e-06
-0.000100478709074
2.35652763537e-06
-0.000102722746177
3.2973046784e-06
-0.000105304242819
4.27719133455e-06
-0.000108251903739
5.16125161118e-06
-0.000111518051481
5.86208578747e-06
-0.000115003357761
6.33205621667e-06
-0.000118583643674
6.54874187979e-06
-0.000122129841431
6.50719801953e-06
-0.000125516311971
6.22006909726e-06
-0.000128633474867
5.71655405129e-06
-0.000131397154292
5.04191604637e-06
-0.000133753162704
4.25675490596e-06
-0.000135682151813
3.43325494309e-06
-0.000137202577964
2.64846740954e-06
-0.000138369698005
1.97585602974e-06
-0.00013926982185
1.47639841212e-06
-0.000140010809572
1.19209565057e-06
-0.000140708626997
1.14472837277e-06
-0.000141481037888
1.33634595932e-06
-0.000142441940848
1.74785395054e-06
-0.000143683704272
2.34840839847e-06
-0.000145278140816
3.09665751417e-06
-0.000147273499665
3.94350310738e-06
-0.000149691798419
4.83577479355e-06
-0.000152528344867
5.71988437473e-06
-0.000155753121928
6.5449360063e-06
-0.000159313513523
7.26527909189e-06
-0.000163137979297
7.84255084473e-06
-0.000167140363387
8.24715965215e-06
-0.000171224600607
8.45913865922e-06
-0.000175289781092
8.46936952164e-06
-0.000179235236048
8.2798245472e-06
-0.000182966833169
7.90351886631e-06
-0.000186402541468
7.36555572003e-06
-0.00018947898463
6.70474684565e-06
-0.000192158823073
5.97420938527e-06
-0.000194436847769
5.23830457631e-06
-0.000196342876576
4.56591925679e-06
-0.000197939562487
4.0200709982e-06
-0.000199313269254
3.64512956267e-06
-0.000200559992273
3.45836823072e-06
-0.000201772646934
3.45141703194e-06
-0.000203030600098
3.59786011139e-06
-0.000204393769124
3.86058370338e-06
-0.000205901268937
4.19931023757e-06
-0.000207572379094
4.57541081615e-06
-0.00020940875378
4.95458565329e-06
-0.000211397388756
5.3083775364e-06
-0.000213513974505
5.61485389159e-06
-0.000215726269224
5.85856288167e-06
-0.000217997136178
6.02982752516e-06
-0.000220286950498
6.12350035095e-06
-0.000222555138188
6.13733101275e-06
-0.000224760918616
6.07047810535e-06
-0.000226863430741
5.9225003675e-06
-0.000228821886775
5.69375460765e-06
-0.000230597240601
5.388394888e-06
-0.000232156213328
5.01815053092e-06
-0.000233474952307
4.60196066946e-06
-0.000234542308159
4.16560661949e-06
-0.000235364362711
3.74200115165e-06
-0.000235963652441
3.3615100741e-06
-0.000236371634856
3.04132158648e-06
-0.000236622147781
2.78699717506e-06
-0.000236749078194
2.59869477202e-06
-0.000236783353535
2.47087115568e-06
-0.0002367501609
2.3932134527e-06
-0.000236668459842
2.35431405053e-06
-0.00023655191266
2.34407084977e-06
-0.000236409989208
2.35407804217e-06
-0.000236248460727
2.37665269598e-06
-0.000236069085441
2.40346722241e-06
-0.000235868744096
2.4245534785e-06
-0.000235638444662
2.42797113193e-06
-0.000235362546699
2.40005233629e-06
-0.000235018415765
2.32580368687e-06
-0.000234576023922
2.18809845447e-06
-0.000233995781358
1.96408618701e-06
-0.000233223203464
1.62005330592e-06
-0.000232185216297
1.11123683366e-06
-0.000230783848114
3.7738188029e-07
-0.000228880896459
-6.96565899441e-07
-0.000226434175939
-2.25938254887e-06
-0.000223013742631
-4.46579885849e-06
-0.000218211448629
-7.72654969789e-06
-0.000211346716662
-1.2537168356e-05
-0.000201420054747
-1.95180628824e-05
-0.000187054163659
-2.93993537567e-05
-0.000166460698851
-4.29211637968e-05
-0.00013755262798
-6.05983692187e-05
-9.85333090817e-05
-8.1956428339e-05
-4.97727453459e-05
-0.000102829791344
-0.000105349854678
-9.80288548558e-06
3.98557171391e-05
-1.21673326623e-05
7.3450331374e-06
-8.55936119059e-06
-1.30441067466e-05
-3.65776058868e-06
-2.02013823955e-05
9.76698139704e-07
-2.06035672945e-05
5.48740087063e-06
-1.87783749973e-05
9.77944652083e-06
-1.64682994304e-05
1.3778357488e-05
-1.44234977114e-05
1.74043182187e-05
-1.2505010544e-05
2.06072108879e-05
-1.05902805594e-05
2.33377236023e-05
-8.59500209502e-06
2.55441964974e-05
-6.48622236972e-06
2.71943746139e-05
-4.29488061497e-06
2.82820582774e-05
-2.12193799866e-06
2.86190000016e-05
1.51850461961e-07
2.79255219511e-05
2.62196341699e-06
2.6354271261e-05
4.64188867142e-06
2.41114697589e-05
6.08624647121e-06
2.14053733467e-05
6.92466641207e-06
1.84312817995e-05
7.19983142451e-06
1.53149756893e-05
7.07054409925e-06
1.2114173337e-05
6.67388001618e-06
8.80913540648e-06
6.19269769554e-06
5.34350256084e-06
5.82060897485e-06
1.70717103473e-06
5.66687233057e-06
-1.98555746981e-06
5.69847703551e-06
-5.70687659314e-06
5.88553246372e-06
-9.44462480986e-06
6.13892680394e-06
-1.31819395226e-05
6.40878111402e-06
-1.68988631739e-05
6.66396813973e-06
-2.05794933336e-05
6.88539784569e-06
-2.42123563912e-05
7.06217804724e-06
-2.77932972092e-05
7.18932784985e-06
-3.13160230112e-05
7.27015828436e-06
-3.4767105194e-05
7.3112258013e-06
-3.8134668564e-05
7.31500924919e-06
-4.14112985162e-05
7.28209593325e-06
-4.45899573045e-05
7.21379253401e-06
-4.76634440032e-05
7.11142931354e-06
-5.06244311185e-05
6.97572004355e-06
-5.34655582984e-05
6.80656795443e-06
-5.61796106247e-05
6.60315298483e-06
-5.87596169989e-05
6.36432507518e-06
-6.11991978403e-05
6.08920489477e-06
-6.34929257185e-05
5.77782482276e-06
-6.5636933031e-05
5.43176719736e-06
-6.7630006635e-05
5.05488301135e-06
-6.94718602163e-05
4.65377818662e-06
-7.11656745984e-05
4.23685995113e-06
-7.27185088256e-05
3.81443049739e-06
-7.41412069168e-05
3.39853157728e-06
-7.54481680035e-05
3.00258857533e-06
-7.66568933458e-05
2.64077759895e-06
-7.77873210185e-05
2.32746903106e-06
-7.8861185559e-05
2.07663977198e-06
-7.99013197872e-05
1.90103771643e-06
-8.0930795922e-05
1.81107272365e-06
-8.19721067376e-05
1.81317121082e-06
-8.30468716159e-05
1.9079819519e-06
-8.41750437598e-05
2.08867533034e-06
-8.53759840635e-05
2.33982019843e-06
-8.66657780457e-05
2.63867426418e-06
-8.80544510962e-05
2.95804818732e-06
-8.95432310867e-05
3.2702802541e-06
-9.11230823109e-05
3.5502189673e-06
-9.2774756114e-05
3.7768455876e-06
-9.4470517807e-05
3.93359887692e-06
-9.61770443848e-05
4.00811581468e-06
-9.78588397935e-05
3.99203513712e-06
-9.94812026063e-05
3.88162759158e-06
-0.000101012877361
3.67886310671e-06
-0.000102428947578
3.39233117503e-06
-0.000103712154079
3.03816544513e-06
-0.000104853650513
2.64001478109e-06
-0.000105853740322
2.22766749319e-06
-0.000106722522772
1.83434567177e-06
-0.000107480069918
1.49312091285e-06
-0.000108155892611
1.23318125441e-06
-0.000108787474042
1.07664493836e-06
-0.000109417487651
1.03612248226e-06
-0.000110093186222
1.11324025195e-06
-0.000110861538334
1.300079098e-06
-0.00011176294036
1.5822747465e-06
-0.000112828104502
1.94275730586e-06
-0.000114073445364
2.36473287834e-06
-0.000115499447745
2.83253873694e-06
-0.000117092629071
3.33061340855e-06
-0.00011882117906
3.83607503542e-06
-0.000120647250032
4.31052235106e-06
-0.000122529741794
4.70503187687e-06
-0.000124426249011
4.96920786641e-06
-0.000126294195647
5.06164763998e-06
-0.000128089647603
4.95862549045e-06
-0.000129768873676
4.65849528989e-06
-0.000131291944518
4.18221185183e-06
-0.000132626194297
3.57062010572e-06
-0.000133751732836
2.87933693964e-06
-0.000134666153147
2.17310597485e-06
-0.000135386991476
1.51968384087e-06
-0.000135952051744
9.82947686118e-07
-0.000136417608582
6.15385610734e-07
-0.000136856588459
4.50019571884e-07
-0.000137362556356
5.04066343241e-07
-0.000138004457218
7.86815531637e-07
-0.000138853512611
1.29403684488e-06
-0.000139969267144
2.02247711599e-06
-0.000141384292407
2.960165895e-06
-0.000143106295555
4.07464031359e-06
-0.000145108510937
5.2970184263e-06
-0.000147351565265
6.51926895551e-06
-0.000149808546815
7.61875812894e-06
-0.000152437320506
8.49267749834e-06
-0.000155171698536
9.06920612968e-06
-0.000157926997939
9.3073438294e-06
-0.000160611055174
9.19461236572e-06
-0.000163133890073
8.74581331553e-06
-0.000165416813541
8.00144437582e-06
-0.000167400467436
7.02614459332e-06
-0.000169050921641
5.90602728131e-06
-0.000170363668737
4.74282564541e-06
-0.000171364716618
3.64426550087e-06
-0.000172108422896
2.71233666098e-06
-0.000172671093743
2.03013648966e-06
-0.000173140980502
1.65175326295e-06
-0.000173607529926
1.6002583827e-06
-0.000174153193241
1.87075138699e-06
-0.000174851524504
2.4352367023e-06
-0.000175761618085
3.24836520239e-06
-0.000176924784055
4.25093287321e-06
-0.000178363480664
5.37490647395e-06
-0.000180081094721
6.54795218185e-06
-0.000182062417886
7.6977919838e-06
-0.00018427500273
8.75619746355e-06
-0.000186671373383
9.66239932248e-06
-0.00018919191186
1.03658064707e-05
-0.000191768240874
1.08279864547e-05
-0.000194327010246
1.10239235765e-05
-0.000196793332111
1.09428930491e-05
-0.000199094382138
1.05888731925e-05
-0.000201163245392
9.98074610406e-06
-0.00020294284758
9.15343431332e-06
-0.000204390906553
8.16055157879e-06
-0.000205486981974
7.07711105977e-06
-0.000206238799136
5.9957488204e-06
-0.000206685056226
5.01648721757e-06
-0.000206894337331
4.23243008863e-06
-0.000206954713566
3.70764002306e-06
-0.000206955944349
3.46124520108e-06
-0.00020697386963
3.47104935188e-06
-0.000207063123574
3.68944719519e-06
-0.000207256397458
4.05733868458e-06
-0.000207567233199
4.51521573514e-06
-0.000207994008399
5.00918877766e-06
-0.00020852336318
5.49312438519e-06
-0.000209133291203
5.92983228659e-06
-0.000209796059352
6.29158124305e-06
-0.000210480926379
6.55985592313e-06
-0.000211156447229
6.72423620803e-06
-0.000211792167382
6.78053873158e-06
-0.000212359469442
6.72832978753e-06
-0.00021283125119
6.56825853706e-06
-0.000213180724967
6.30015899315e-06
-0.000213379615947
5.92283780241e-06
-0.000213397473363
5.43818435753e-06
-0.000213206992046
4.86097551495e-06
-0.000212790345028
4.21954963316e-06
-0.00021214080504
3.55074004797e-06
-0.000211273122732
2.90894119805e-06
-0.000210226532303
2.34908883389e-06
-0.00020904839853
1.89662862194e-06
-0.000207778995153
1.55010458101e-06
-0.000206452682934
1.30380005482e-06
-0.000205098605274
1.14700024845e-06
-0.000203736813155
1.06034538265e-06
-0.000202379481266
1.0245931891e-06
-0.000201033826625
1.02472856164e-06
-0.000199704427291
1.04975786506e-06
-0.00019839413051
1.09031825391e-06
-0.000197103693314
1.13602894136e-06
-0.000195830859074
1.17391842104e-06
-0.000194569567901
1.18822342312e-06
-0.000193309431491
1.16090611948e-06
-0.000192035884459
1.07274687923e-06
-0.00019073155061
9.03767238904e-07
-0.000189376428603
6.28469410368e-07
-0.000187931939948
1.94561820323e-07
-0.000186437194078
-3.65014394727e-07
-0.000184900605773
-1.14095400098e-06
-0.000183270109111
-2.30893471449e-06
-0.00018141762948
-4.09406976667e-06
-0.000179062780404
-6.80309742008e-06
-0.000175862237686
-1.09096586333e-05
-0.000171288368016
-1.70935566545e-05
-0.00016451180017
-2.62768985773e-05
-0.000154284879152
-3.96080528211e-05
-0.000138863845234
-5.83232356909e-05
-0.000116109688151
-8.33326509213e-05
-8.40505489793e-05
-0.000113994951962
-4.25566770841e-05
-0.000144303584097
-0.000147891730487
-7.88067659254e-06
4.77014390419e-05
-9.52826235134e-06
8.96779542939e-06
-6.92492001641e-06
-1.56577926776e-05
-4.18093073615e-06
-2.29495451986e-05
-1.80212188161e-06
-2.29837514733e-05
6.20872072614e-07
-2.12016731692e-05
3.15743611144e-06
-1.90049076764e-05
5.58791981485e-06
-1.68542480909e-05
7.80866821369e-06
-1.47264567956e-05
9.74578222391e-06
-1.25286378001e-05
1.13371212816e-05
-1.01882042081e-05
1.25271387826e-05
-7.67878103596e-06
1.32048558315e-05
-4.97592653269e-06
1.30083561382e-05
-1.92989602973e-06
1.18734353789e-05
1.28096041166e-06
1.0155815311e-05
4.33269939753e-06
8.00077466417e-06
6.79090977226e-06
5.45896900605e-06
8.62514881322e-06
2.58821867241e-06
9.79785973049e-06
-5.47328101753e-07
1.03449306201e-05
-3.85820626627e-06
1.03951905363e-05
-7.3810720588e-06
1.02123150743e-05
-1.11577883715e-05
9.984300166e-06
-1.51569321731e-05
9.83225804171e-06
-1.92900785871e-05
9.80964875006e-06
-2.34867875605e-05
9.90207928954e-06
-2.76723519945e-05
1.00762474219e-05
-3.18148267607e-05
1.0285213006e-05
-3.58942693066e-05
1.04908503796e-05
-3.98967974057e-05
1.06680455486e-05
-4.38122299558e-05
1.08013962934e-05
-4.76331676423e-05
1.08827838783e-05
-5.1355045555e-05
1.09100547078e-05
-5.49727545346e-05
1.0885987817e-05
-5.84791988519e-05
1.08151455167e-05
-6.18686534968e-05
1.0701372046e-05
-6.51378470641e-05
1.05477085227e-05
-6.82848173284e-05
1.03567713576e-05
-7.13082435569e-05
1.01305311246e-05
-7.42071255114e-05
9.87001842922e-06
-7.6980619183e-05
9.57528580025e-06
-7.96280039941e-05
9.24562648626e-06
-8.21486571955e-05
8.87997480245e-06
-8.45421461345e-05
8.47762547366e-06
-8.68083673463e-05
8.03892236095e-06
-8.89477475317e-05
7.56596026755e-06
-9.0961451632e-05
7.06331244563e-06
-9.28513219072e-05
6.53825017508e-06
-9.46206465717e-05
6.00062158933e-06
-9.62747568307e-05
5.46277497968e-06
-9.78213715984e-05
4.93915102056e-06
-9.92707844081e-05
4.44576746322e-06
-0.000100635932502
3.99946632127e-06
-0.000101932116089
3.61700466793e-06
-0.00010317642809
3.31417581349e-06
-0.000104386978161
3.1047669221e-06
-0.00010558191677
2.99925046364e-06
-0.000106778540376
3.00321946211e-06
-0.000107992486261
3.11568063562e-06
-0.000109237027474
3.32744915432e-06
-0.000110522862399
3.62051314635e-06
-0.000111857584151
3.96899965883e-06
-0.000113244823509
4.34171329156e-06
-0.000114682898131
4.7056238991e-06
-0.000116163764214
5.02916092401e-06
-0.00011767278482
5.28465991413e-06
-0.000119189580375
5.44977307565e-06
-0.000120689817026
5.50814825587e-06
-0.000122147686167
5.44992329643e-06
-0.000123538433569
5.27240592476e-06
-0.000124840561534
4.98081674504e-06
-0.000126037750184
4.58893190506e-06
-0.000127120137942
4.11936988246e-06
-0.000128085019227
3.60298165324e-06
-0.000128937076628
3.07700773345e-06
-0.000129688313202
2.58206735574e-06
-0.000130357727379
2.15830816921e-06
-0.000130970555051
1.84123006599e-06
-0.000131556887936
1.65786531868e-06
-0.000132149895484
1.62393676059e-06
-0.000132784360922
1.74269152196e-06
-0.000133494501647
2.0056244045e-06
-0.000134310836748
2.39463231132e-06
-0.000135256401867
2.88511050434e-06
-0.000136342785272
3.44876543721e-06
-0.000137567094843
4.05540794215e-06
-0.000138910130868
4.67313092056e-06
-0.000140338885106
5.26521061025e-06
-0.000141814554035
5.78740521043e-06
-0.000143298046715
6.19042724347e-06
-0.000144752980803
6.42648990235e-06
-0.000146146760353
6.45787459133e-06
-0.00014745052185
6.2645072777e-06
-0.000148639443084
5.84874331407e-06
-0.00014969383309
5.23668051722e-06
-0.000150600963012
4.47619172695e-06
-0.00015135765778
3.63256257572e-06
-0.000151972682585
2.78262986803e-06
-0.000152467962522
2.00748574842e-06
-0.000152877911617
1.38367545096e-06
-0.000153247151924
9.74055712558e-07
-0.00015363001816
8.21481065131e-07
-0.000154086699264
9.4908175816e-07
-0.000154672451062
1.36122238527e-06
-0.000155434282651
2.04540751472e-06
-0.000156398797231
2.97792276535e-06
-0.000157566649343
4.12078616452e-06
-0.000158914393476
5.41735833253e-06
-0.000160404186153
6.78425544431e-06
-0.000161996547174
8.11165201076e-06
-0.000163656143965
9.28084322098e-06
-0.000165344947079
1.01860882709e-05
-0.000167017408014
1.07478443524e-05
-0.000168621302557
1.09182809257e-05
-0.000170102438115
1.06828463274e-05
-0.000171410611869
1.00602801843e-05
-0.000172505631635
9.10110101793e-06
-0.000173362562212
7.88528481978e-06
-0.00017397639963
6.51903184412e-06
-0.000174365563689
5.12772890317e-06
-0.000174571644657
3.84256060654e-06
-0.000174656020638
2.78562059573e-06
-0.000174692157628
2.05239533591e-06
-0.000174751667364
1.69535841212e-06
-0.000174892965032
1.72452964489e-06
-0.000175158237163
2.11882580255e-06
-0.000175573741608
2.83428517375e-06
-0.000176151450841
3.81117764078e-06
-0.000176891425185
4.97825614758e-06
-0.000177783155379
6.25676707088e-06
-0.000178806618018
7.5647047398e-06
-0.000179933320429
8.82116473755e-06
-0.000181127508482
9.95050442154e-06
-0.000182347651268
1.0886030556e-05
-0.000183548211961
1.15730046063e-05
-0.000184681657382
1.19708617088e-05
-0.000185700611284
1.20546133305e-05
-0.000186559772204
1.18154885543e-05
-0.000187217435992
1.12609565117e-05
-0.000187636567503
1.04144844865e-05
-0.000187785672074
9.31648669335e-06
-0.000187640788203
8.02811577234e-06
-0.000187193667608
6.64018686041e-06
-0.000186464989557
5.27446331524e-06
-0.000185507886525
4.06373189373e-06
-0.00018441099027
3.13698839181e-06
-0.00018328360561
2.57938078901e-06
-0.000182225113597
2.40044175182e-06
-0.000181294671827
2.5379109139e-06
-0.000180515074741
2.90780702369e-06
-0.000179882220685
3.42400279166e-06
-0.000179374294011
4.00908713667e-06
-0.000178961091724
4.6005841417e-06
-0.000178608594445
5.14836250443e-06
-0.000178281850748
5.61414819907e-06
-0.000177947198114
5.97138201107e-06
-0.000177574129354
6.20462331967e-06
-0.000177136742878
6.30801206749e-06
-0.000176614419433
6.28263123635e-06
-0.000175991327499
6.13283733949e-06
-0.000175253872049
5.8615197254e-06
-0.00017438586548
5.46590245733e-06
-0.000173363636876
4.93724844985e-06
-0.000172151286987
4.26510002304e-06
-0.000170713541037
3.4647000963e-06
-0.000169040025383
2.58916196654e-06
-0.00016712879654
1.6836866799e-06
-0.000164997601705
8.22478128625e-07
-0.000162693062586
8.98710860933e-08
-0.000160293158175
-4.56516901913e-07
-0.000157912470109
-7.84905312542e-07
-0.000155639305437
-9.2653778572e-07
-0.00015350582803
-9.47124834112e-07
-0.000151513277287
-8.96512627112e-07
-0.000149650893701
-8.05781614161e-07
-0.000147905651556
-6.92082998152e-07
-0.00014626513229
-5.65619837325e-07
-0.000144717001979
-4.35460698659e-07
-0.000143248020469
-3.12734159268e-07
-0.000141844374075
-2.10946714253e-07
-0.00014049374599
-1.44461174857e-07
-0.000139187609562
-1.27712050562e-07
-0.000137924146333
-1.73417696178e-07
-0.000136714135285
-2.89122413115e-07
-0.000135582913158
-4.85838205978e-07
-0.000134581451685
-7.90209121735e-07
-0.000133674886439
-1.25503674355e-06
-0.000132811587533
-1.98815121961e-06
-0.000131966085773
-3.1387414185e-06
-0.000131119948339
-4.92483464015e-06
-0.000130202577405
-7.70528423978e-06
-0.000129048220939
-1.20488346734e-05
-0.000127313793516
-1.88125591911e-05
-0.000124348692814
-2.92260093968e-05
-0.00011902733758
-4.49124550325e-05
-0.000109636782079
-6.7695432791e-05
-9.39203490102e-05
-9.90289699369e-05
-6.95261446896e-05
-0.0001383674351