/*--------------------------------*- C++ -*----------------------------------*\
  =========                 |
  \\      /  F ield         | OpenFOAM: The Open Source CFD Toolbox
   \\    /   O peration     | Website:  https://openfoam.org
    \\  /    A nd           | Version:  12
     \\/     M anipulation  |
\*---------------------------------------------------------------------------*/
FoamFile
{
    format      ascii;
    class       volScalarField;
    location    "10";
    object      rho;
}
// * * * * * * * * * * * * * * * * * * * * * * * * * * * * * * * * * * * * * //

dimensions      [1 -3 0 0 0 0 0];

internalField   nonuniform List<scalar> 
40000
(
1.170704612
1.20610615748
1.21383364343
1.21709910457
1.21869962518
1.2193016879
1.21913388064
1.21878988085
1.21835365781
1.21783896731
1.21724525531
1.21657129779
1.2158226472
1.21503041845
1.21430745408
1.2136522799
1.21307115116
1.21257736149
1.21218982469
1.2119299083
1.21181819297
1.21187124117
1.2120973455
1.21249305649
1.21304501896
1.21373644332
1.21455010839
1.21546478415
1.21645410763
1.217492687
1.21856432324
1.21966438321
1.22079572312
1.22196364512
1.22317338539
1.22442244038
1.22570007773
1.22698848204
1.22826472056
1.22950435735
1.23068547734
1.23179178664
1.23281349381
1.23374687724
1.23459259418
1.2353537346
1.23603266251
1.23663243385
1.23717111147
1.23765503454
1.23808909646
1.2384777799
1.2388252223
1.23913529387
1.23941167176
1.23965789258
1.23987737497
1.24007341362
1.24024914212
1.24040750729
1.24055126491
1.24068298324
1.24080500162
1.24091928196
1.24102736437
1.24113043036
1.2412293842
1.24132492263
1.24141758725
1.24150779704
1.24159586757
1.24168202528
1.24176642645
1.24184918491
1.24193040571
1.2420102156
1.24208878036
1.24216630527
1.2422430141
1.24231909733
1.24239461124
1.24246934253
1.24254330836
1.24261652831
1.24268914814
1.24276158804
1.24283409748
1.24290695128
1.24298055367
1.24305528452
1.24313149028
1.24320950486
1.24328968647
1.24337244186
1.24345819995
1.24354731596
1.24363991462
1.24373573291
1.24383403725
1.24393358903
1.24403244889
1.24412764711
1.24421796028
1.24430359524
1.24438640942
1.24447024317
1.24456064465
1.24466116296
1.24476895671
1.24488474686
1.24500900616
1.2451413311
1.24528042688
1.24542405679
1.24556917323
1.24571246741
1.24585122336
1.24598402188
1.24611093048
1.24623316519
1.24635251557
1.24647084232
1.24658978496
1.24671065858
1.2468344581
1.24696189065
1.24709338837
1.2472291263
1.24736900324
1.24751261001
1.24765922704
1.24780786963
1.24795738734
1.24810660443
1.24825446884
1.24840017098
1.24854320512
1.24868336887
1.24882071529
1.24895547978
1.24908800558
1.24921867812
1.24934786983
1.24947589478
1.24960297223
1.24972919991
1.24985453986
1.24997882059
1.25010175684
1.25022298329
1.25034209226
1.25045866902
1.25057232186
1.25068270433
1.25078952903
1.2508925737
1.25099168101
1.25108675413
1.25117775026
1.25126467397
1.2513475718
1.25142652859
1.25150166478
1.25157313343
1.25164111528
1.25170581104
1.2517674327
1.25182619606
1.25188231601
1.25193600754
1.25198749385
1.25203701843
1.25208485508
1.25213131316
1.25217673817
1.25222150897
1.25226603296
1.25231074083
1.25235608169
1.25240251887
1.25245052562
1.25250058029
1.25255316028
1.25260873503
1.25266775815
1.25273065936
1.2527978361
1.25286964593
1.25294640025
1.25302837155
1.25311534969
1.25328016282
1.25358050803
1.2540845568
1.25489296851
1.2561564921
1.2581044707
1.26110668928
1.26583848259
1.27391511225
1.16838081636
1.20923700396
1.219022712
1.22286158345
1.22446903582
1.225011137
1.22496517522
1.22474216215
1.22441060746
1.22398374808
1.2234603814
1.22283549049
1.22210473022
1.22126214286
1.22027827355
1.21928576683
1.21831065567
1.21738898137
1.21656238919
1.21587742847
1.21538845685
1.21515778908
1.21524159353
1.21566466774
1.21640798276
1.21742729088
1.21868105641
1.22011734565
1.22165019869
1.22318479883
1.22466172205
1.22606985073
1.22742131272
1.22867525127
1.2298502572
1.23096721082
1.23201493172
1.23298445253
1.23387051231
1.23467165799
1.23538971347
1.23602904589
1.2365955014
1.2370957502
1.23753650068
1.23792411135
1.23826480615
1.23856440393
1.23882821336
1.23906071523
1.239266068
1.23944821357
1.23961091658
1.23975776872
1.2398921683
1.24001727621
1.24013594266
1.24025058662
1.24036301652
1.240474197
1.24058410972
1.24069181041
1.24079575309
1.24089428688
1.24098610925
1.24107052247
1.24114748603
1.24121751903
1.24128152853
1.24134063913
1.24139607318
1.24144909056
1.24150096553
1.24155296145
1.24160627249
1.2416619287
1.24172068479
1.24178292191
1.24184858748
1.24191719377
1.24198788737
1.24205958819
1.2421311328
1.24220165698
1.2422706006
1.24233774375
1.24240319806
1.24246662163
1.24252709193
1.24258372702
1.24263631245
1.24268547977
1.24273260135
1.24277951555
1.24282820593
1.24288052422
1.24293794476
1.24300145643
1.24307156604
1.24314828569
1.24323112632
1.24331896606
1.24340967018
1.24350200271
1.24359362956
1.24368333565
1.24377064892
1.24385539057
1.24393535075
1.2440045372
1.2440609576
1.24410528772
1.24413931174
1.24416525613
1.2441856716
1.24420350201
1.24422200343
1.24424450435
1.24427411472
1.24431332268
1.24436363849
1.24442539398
1.24449771395
1.24457864105
1.24466537576
1.24475452958
1.24484239575
1.24492542903
1.2450002738
1.24506394578
1.24511402599
1.24514876944
1.24516716954
1.2451689942
1.24515479086
1.24512585338
1.24508414745
1.24503219969
1.2449729492
1.24490955816
1.24484523895
1.244783038
1.24472556601
1.24467469474
1.24463126443
1.24459487056
1.24456381334
1.24453527969
1.2445057379
1.24447144143
1.24442883627
1.24437484919
1.2443070678
1.2442238069
1.24412409336
1.24400759885
1.24387454196
1.24372557777
1.24356169102
1.24338410876
1.24319424621
1.2429936925
1.24278423019
1.24256785967
1.24234676704
1.24212318921
1.24189921454
1.2416765464
1.24145623106
1.2412385039
1.24102290251
1.24080854306
1.2405943493
1.24037920051
1.24016203478
1.23994189689
1.23971793486
1.23948938114
1.23925555981
1.23901594264
1.23877024912
1.23851856632
1.23826146234
1.23800008738
1.23773630646
1.23747294355
1.23721417589
1.23696612324
1.23673741494
1.23658711112
1.2366029602
1.23677181843
1.2371570979
1.23787268822
1.23909285022
1.24108481631
1.2442666002
1.24932714054
1.25751392215
1.27156645785
1.16538925551
1.20999670611
1.22154602862
1.22564247277
1.22708055738
1.22758286629
1.22766172785
1.22758291732
1.22739763948
1.22711748357
1.22674321245
1.22627256431
1.22570326359
1.22503115862
1.22420318626
1.22318029914
1.22202964672
1.22084717162
1.21974992629
1.21888008835
1.21840427009
1.21849579076
1.21926174559
1.22063992689
1.22237803071
1.2241608119
1.2257289723
1.22716084834
1.22847531464
1.22967866652
1.23077999238
1.23178713881
1.23270356507
1.23353013178
1.2342724106
1.23493353791
1.23551664785
1.23602636878
1.23646862568
1.23685011557
1.23717778301
1.23745842485
1.2376984307
1.23790368292
1.23807953947
1.23823090607
1.23836232092
1.2384779726
1.23858170935
1.2386770213
1.23876698624
1.23885417997
1.23894059004
1.23902756131
1.23911578745
1.23920534488
1.23929574714
1.23938599174
1.23947459422
1.23955964415
1.23963893006
1.23971022535
1.23977165279
1.23982199468
1.23986085618
1.23988865648
1.23990649859
1.23991600391
1.23991917691
1.23991831734
1.2399159503
1.23991472337
1.2399172687
1.23992599146
1.23994279829
1.23996883146
1.2400042809
1.24004832551
1.24009922345
1.24015453518
1.24021142672
1.24026705877
1.24031892457
1.24036498164
1.24040367788
1.2404338178
1.2404543678
1.24046436955
1.24046286848
1.24044941296
1.24042473542
1.24039112641
1.24035245185
1.24031374101
1.24028055036
1.24025827145
1.24025144263
1.24026319787
1.24029490488
1.24034598097
1.24041392057
1.24049458142
1.24058276016
1.24067299653
1.24076009531
1.24083768153
1.24089973953
1.24094037336
1.24095391845
1.24093543064
1.24088218002
1.24079534744
1.24067947817
1.24054138007
1.24038936982
1.24023276415
1.24008132765
1.2399445867
1.23983105311
1.23974736604
1.23969747889
1.23968206931
1.23969832968
1.23974023887
1.23979928244
1.2398654124
1.23992801566
1.23997692814
1.24000308023
1.23999893135
1.23995876016
1.23987881398
1.23975734253
1.23959455596
1.23939253636
1.23915511471
1.23888771382
1.23859715781
1.23829141219
1.23797924345
1.23766980232
1.23737207198
1.23709412368
1.23684218393
1.23661966363
1.23642639156
1.23625832971
1.23610804001
1.23596588821
1.23582154424
1.23566526722
1.23548881021
1.23528587808
1.23505223008
1.23478556512
1.23448528332
1.23415218371
1.23378814349
1.23339582018
1.23297841503
1.23253953634
1.23208318079
1.23161382405
1.23113655121
1.2306570559
1.23018131509
1.22971505428
1.22926314896
1.22882881523
1.22841304352
1.22801495157
1.22763259711
1.22726340233
1.22690460985
1.22655366389
1.22620836538
1.22586681147
1.22552727168
1.22518816478
1.22484821987
1.22450679499
1.22416424977
1.22382225788
1.22348400062
1.22315432071
1.22284007832
1.22255086472
1.22232254169
1.2221975653
1.22217445498
1.22226611911
1.22253135166
1.22306417191
1.22401220446
1.22560689526
1.22821289201
1.23241623846
1.23920829192
1.25043418728
1.27029215842
1.16236442036
1.209608695
1.22255141669
1.22670121093
1.22792939523
1.22832476198
1.22843872278
1.22840529141
1.22826697739
1.22802818374
1.22768726089
1.22724319859
1.22669886681
1.22605185574
1.22526025231
1.22420436758
1.22306975626
1.22206046155
1.22139139516
1.221306358
1.22192279289
1.22312063001
1.22468184722
1.22633535843
1.22787803286
1.22922487485
1.23038056876
1.2313846817
1.23226131659
1.23302778593
1.23369660934
1.23427680577
1.23477551552
1.23519957191
1.23555608589
1.23585208654
1.23609463646
1.23629068288
1.23644683377
1.23656918658
1.23666325179
1.23673396654
1.23678577042
1.23682271151
1.23684854827
1.2368668231
1.236880887
1.23689387048
1.23690860438
1.23692751462
1.23695250072
1.23698482325
1.23702502368
1.23707289389
1.23712749396
1.2371872055
1.23724980531
1.23731255109
1.23737229362
1.23742564248
1.23746921173
1.23749996059
1.23751555788
1.23751467791
1.23749714467
1.23746391285
1.2374169349
1.23735898427
1.23729348253
1.23722433972
1.23715577936
1.23709210821
1.23703742389
1.23699526029
1.23696820446
1.23695755131
1.23696307164
1.236982953
1.2370139379
1.23705164337
1.23709101573
1.23712686011
1.2371543327
1.23716929027
1.23716845428
1.23714939995
1.23711045217
1.23705058313
1.23696947755
1.23686802195
1.23674890524
1.23661696612
1.23647912397
1.23634385815
1.23622035434
1.23611747255
1.23604268673
1.2360011486
1.23599498172
1.23602288796
1.23608014819
1.23615907374
1.23624991142
1.23634189316
1.23642393028
1.23648523334
1.23651561066
1.23650566461
1.23644727589
1.2363346243
1.2361656286
1.23594301599
1.23567416053
1.23537026105
1.23504540341
1.23471561125
1.23439776889
1.23410835439
1.23386198617
1.2336698574
1.23353827661
1.23346763796
1.23345210768
1.23348023555
1.23353644849
1.23360298136
1.2336617374
1.23369580086
1.23369045072
1.2336338103
1.23351718617
1.23333518259
1.23308567743
1.23276971919
1.2323913822
1.23195759406
1.23147792991
1.23096435396
1.23043086828
1.2298930215
1.22936723625
1.22886986679
1.2284158589
1.22801693768
1.22767961059
1.22740353849
1.22718078067
1.22699665286
1.22683235893
1.2266683405
1.22648695569
1.22627405281
1.22601950596
1.22571707218
1.22536393596
1.22496012351
1.22450786887
1.22401098494
1.22347429364
1.2229031721
1.22230327952
1.22168053309
1.22104134625
1.22039304369
1.21974420023
1.21910431005
1.21848282149
1.21788785998
1.21732280489
1.21678288134
1.21627383718
1.21580906114
1.21538544188
1.21499546798
1.21463230351
1.21429091534
1.21396721186
1.21365685851
1.21335480841
1.21305589875
1.21275624813
1.21245479976
1.21215444193
1.21186239694
1.21158986383
1.21135199751
1.21117045954
1.21103599001
1.21095298389
1.21094727552
1.21105983104
1.21135662795
1.21194431357
1.21299497759
1.21478561581
1.21776213356
1.22265095349
1.23070807864
1.24435827637
1.26945887522
1.15950622987
1.20891798998
1.22307123682
1.2270931984
1.22812448038
1.2284372818
1.22853922647
1.22852251616
1.22839738958
1.22815756421
1.22779356854
1.22729698318
1.22667491264
1.22597873084
1.22533102981
1.2246923648
1.22418817957
1.2239797936
1.22420435417
1.22491671008
1.226031194
1.2273567673
1.22869494504
1.22990617339
1.23093519322
1.23178665005
1.23248835245
1.23306733445
1.23354345807
1.23393150037
1.23424291222
1.234487187
1.23467279449
1.23480763538
1.23489907213
1.23495384607
1.23497801889
1.23497693321
1.23495522805
1.23491691569
1.23486550633
1.23480415563
1.2347358088
1.23466331927
1.23458952077
1.23451724374
1.23444927335
1.23438825213
1.23433654276
1.23429607119
1.23426816811
1.23425343447
1.23425164825
1.23426172531
1.23428173639
1.23430896879
1.23434002262
1.23437093912
1.23439737222
1.23441482429
1.23441896592
1.23440602632
1.23437319128
1.23431892627
1.23424315644
1.23414728649
1.23403409151
1.23390752981
1.23377251703
1.23363467014
1.23350000476
1.23337456535
1.23326398266
1.23317297272
1.23310482531
1.23306095923
1.23304063039
1.23304086463
1.23305665277
1.23308139496
1.23310753141
1.23312725645
1.2331331928
1.23311892721
1.23307935025
1.23301080863
1.23291113273
1.23277962826
1.23261718085
1.23242659132
1.23221298557
1.23198403837
1.23174980864
1.23152211445
1.23131350595
1.23113596863
1.23099953317
1.23091097869
1.2308728021
1.23088262095
1.23093316676
1.23101294645
1.23110746039
1.23120061504
1.23127602232
1.23131809192
1.23131273304
1.23124790329
1.23111422267
1.23090592291
1.2306220996
1.23026763469
1.22985329543
1.22939516667
1.22891368877
1.22843238958
1.22797625066
1.2275696643
1.22723401544
1.22698503016
1.22683028459
1.22676755391
1.2267845292
1.22686027627
1.22696847772
1.2270813265
1.22717258353
1.22721944468
1.22720335796
1.22711022198
1.22693030693
1.22665808285
1.22629204317
1.22583455577
1.22529174716
1.22467341091
1.22399292042
1.22326711434
1.22251610815
1.22176296073
1.22103310094
1.22035333525
1.2197501301
1.21924664428
1.21885853653
1.21858978041
1.21842802748
1.21834493854
1.21830251242
1.21826257519
1.21819357468
1.21807300419
1.21788638085
1.21762615938
1.21729042234
1.21688151519
1.21640473446
1.2158671039
1.21527625882
1.21463947183
1.21396287686
1.21325103709
1.21250702964
1.21173295353
1.21093057579
1.21009888011
1.20925525655
1.20847074818
1.20778710795
1.20722474091
1.20677387453
1.20639752769
1.20607060869
1.20577785612
1.20551118117
1.20526686358
1.20504266513
1.20483538696
1.20463964189
1.2044482192
1.2042538529
1.20405150439
1.20383999352
1.20362228017
1.20340443469
1.20319426095
1.20300071021
1.20283487988
1.20271360806
1.20266222801
1.20272144154
1.20295913883
1.2034895774
1.20450419339
1.20631995329
1.20945254133
1.21473498309
1.22364382102
1.2391530603
1.26884386197
1.15692595067
1.20835174218
1.22340924135
1.22718781867
1.22806095175
1.22833499509
1.22844971223
1.22846578626
1.22838235932
1.22819450211
1.22790617729
1.22753838203
1.22713836687
1.22678195758
1.22646404487
1.22626662413
1.22627213451
1.2265541959
1.22713640765
1.22796773239
1.22893078064
1.22989183666
1.23075207151
1.23146618527
1.23203188208
1.23246748135
1.2327950913
1.23303350048
1.2331974963
1.23329893443
1.23334771681
1.23335244004
1.23332072299
1.23325930255
1.23317402097
1.2330698297
1.23295084082
1.2328204265
1.23268136129
1.23253599092
1.23238640874
1.23223461909
1.2320826667
1.23193272058
1.23178709976
1.23164823784
1.23151859293
1.23140050848
1.23129604191
1.23120678142
1.23113366706
1.23107683893
1.231035531
1.23100802145
1.23099164733
1.23098288166
1.23097746583
1.23097059311
1.23095714308
1.2309319712
1.23089025866
1.23082790815
1.23074194403
1.23063085262
1.23049480365
1.23033572492
1.23015723777
1.22996447879
1.22976383218
1.2295625826
1.22936848233
1.22918922403
1.2290318278
1.22890197825
1.22880337722
1.22873720397
1.22870178708
1.22869257567
1.22870244935
1.22872233847
1.22874206107
1.22875123485
1.22874013031
1.22870035756
1.2286253366
1.22851056756
1.22835376157
1.22815492141
1.22791648121
1.22764355436
1.22734418666
1.22702941856
1.22671296419
1.22641039535
1.22613783597
1.22591027841
1.22573972429
1.22563341758
1.22559247117
1.22561118942
1.22567735584
1.2257735658
1.22587927387
1.22597291022
1.22603362239
1.22604243416
1.22598289539
1.22584155449
1.22560853237
1.22527838412
1.22485120608
1.22433363016
1.22373937331
1.22308928674
1.22241095292
1.22173778264
1.22110741958
1.22055920368
1.22013046503
1.21985150172
1.21973950352
1.21979299113
1.21998867763
1.22028269709
1.22061975897
1.22094590725
1.22121625824
1.22139762248
1.22146813702
1.22141516771
1.2212328718
1.22092023896
1.22047984415
1.21991720716
1.21924054737
1.21846075224
1.21759145203
1.21664916498
1.21565353867
1.21462775919
1.21359922248
1.21260042529
1.2116696325
1.21084931881
1.21018885262
1.20980033232
1.20971470642
1.20988001305
1.21018851379
1.21051555913
1.21078223947
1.21097321262
1.21106722781
1.21105043924
1.21091848014
1.21067492305
1.21032889285
1.20989259841
1.20937897062
1.20879940485
1.20816145234
1.20746640763
1.20670730407
1.20586599095
1.20497564619
1.204119359
1.20337725944
1.20274360821
1.20220516887
1.20174985203
1.20136539021
1.20103887511
1.20075769945
1.20051051526
1.20028800392
1.20008332496
1.19989204733
1.19971141992
1.1995390892
1.19937166235
1.19920383462
1.1990288135
1.19883985684
1.19863251188
1.19840624271
1.19816477505
1.19791553092
1.19766946884
1.19744230882
1.19725754997
1.19715396825
1.19720010532
1.19751966748
1.19833021231
1.19999754262
1.2030991085
1.20852605535
1.2179309085
1.23480898586
1.26835589522
1.15468568241
1.20805302255
1.22360171236
1.22710600031
1.22786521278
1.22813397357
1.22829363402
1.22838677944
1.22841143126
1.22836868424
1.22827030222
1.22813903052
1.22800499517
1.22789431659
1.2278376694
1.22790118516
1.22812207302
1.2285131556
1.22904806621
1.22966264832
1.23027573836
1.23081867302
1.23125321478
1.2315707899
1.23178104057
1.23190013078
1.23194406972
1.23192653751
1.23185892587
1.23175085465
1.23161059837
1.23144532899
1.23126121299
1.23106343634
1.23085622841
1.23064293026
1.23042611216
1.2302077301
1.22998930792
1.22977212678
1.22955740192
1.22934643045
1.22914069067
1.22894188294
1.22875190696
1.22857277414
1.22840646791
1.22825476785
1.2281190572
1.22800014043
1.22789809172
1.22781214975
1.22774067058
1.22768113803
1.2276302245
1.22758389464
1.22753754379
1.22748617152
1.22742459842
1.22734773648
1.22725092093
1.22713029333
1.22698320031
1.22680855622
1.22660711616
1.22638161939
1.22613678696
1.22587917623
1.22561689526
1.22535917182
1.22511576905
1.22489624808
1.22470910011
1.22456081286
1.224454985
1.22439163623
1.22436686593
1.22437298257
1.22439914481
1.22443242274
1.22445906445
1.22446571535
1.22444040464
1.2243732281
1.22425675521
1.22408624249
1.22385975626
1.22357830557
1.2232460671
1.22287071957
1.22246379899
1.22204089673
1.22162147882
1.22122811117
1.22088492748
1.22061527231
1.22043860356
1.22036696734
1.22040167437
1.2205311106
1.22073081013
1.22096659878
1.22120017228
1.22139498491
1.22152040381
1.22155324036
1.22147722004
1.22128161094
1.22096005637
1.2205101588
1.21993382636
1.21923803633
1.21843563983
1.2175460229
1.2165956202
1.21561834249
1.2146559361
1.21375817095
1.21298242698
1.21239132568
1.21204555833
1.21201061916
1.21232563046
1.21292767083
1.21368109615
1.21448177499
1.21523987806
1.21587960485
1.21634954166
1.21662306917
1.21669333165
1.21656665781
1.21625684027
1.21578121248
1.21515843597
1.21440747152
1.21354716263
1.21259601231
1.21157197455
1.21049234399
1.20937422932
1.20823641958
1.20710486623
1.2060726826
1.20525039625
1.20462306164
1.20417066034
1.20389072033
1.2037900943
1.20388731555
1.20416056688
1.20449583014
1.20482963781
1.2051118219
1.20530541566
1.20538893122
1.20535493098
1.20520674125
1.20495430627
1.20460944583
1.20417904859
1.20365008592
1.20301644874
1.20235081003
1.20170432898
1.20108984929
1.20051795759
1.19999471667
1.19952185916
1.19909822545
1.19872080262
1.19838545788
1.19808756528
1.19782243575
1.19758559344
1.19737289626
1.19718050621
1.19700475307
1.19684208265
1.19668927407
1.19654193299
1.19639467876
1.19624188066
1.19607756938
1.19589548891
1.19568996188
1.19545704396
1.19519493584
1.19490552078
1.19459512197
1.19428074691
1.19401500198
1.19393491864
1.19431381821
1.19564178919
1.19853870649
1.20388818957
1.21348057649
1.23131466127
1.26794738964
1.15278540833
1.20795736274
1.22363934151
1.22689095212
1.22756308615
1.22783244951
1.22803838856
1.2282118444
1.22834756674
1.22844359038
1.2285051072
1.22854283917
1.22857003967
1.22860472005
1.22868895928
1.22884468129
1.22908067452
1.22938619835
1.22972940697
1.2300652247
1.23034987613
1.23055384081
1.23066609279
1.23069010224
1.23063687536
1.23051945473
1.23035017192
1.23013985153
1.2298978567
1.22963230278
1.22935022057
1.22905763593
1.22875959518
1.22846018077
1.22816255366
1.22786904179
1.22758127596
1.22730036382
1.22702708925
1.22676212001
1.2265061998
1.22626030335
1.22602573065
1.22580411897
1.22559736319
1.22540744218
1.22523616366
1.22508486094
1.22495408373
1.22484333722
1.22475092434
1.22467392609
1.22460832971
1.22454927997
1.22449139799
1.22442910331
1.22435688483
1.22426949699
1.22416209644
1.22403036127
1.22387064216
1.22368018091
1.22345739956
1.2232022282
1.22291642281
1.22260382438
1.22227051876
1.22192486598
1.22157737154
1.22124036264
1.22092741577
1.22065247829
1.22042865185
1.22026666899
1.2201731948
1.22014921321
1.22018888137
1.22027929438
1.22040149693
1.22053271159
1.2206492554
1.22072932781
1.22075497791
1.22071298734
1.22059484571
1.22039622327
1.22011634764
1.21975756531
1.21932522148
1.21882786906
1.21827772658
1.2176912534
1.21708969021
1.21649939888
1.21595179243
1.21548254883
1.21512963639
1.21492945233
1.21491043237
1.21508426159
1.21543674188
1.21592425221
1.21648024577
1.2170289866
1.21750016972
1.21783940268
1.21801229316
1.21800306547
1.21781017435
1.21744153875
1.21691103667
1.21623666772
1.21543996729
1.21454598279
1.21358321298
1.21258314604
1.2115793457
1.21060648893
1.20970015992
1.20890024837
1.20826067603
1.20781622094
1.20757474031
1.20758213415
1.2078905137
1.20845141576
1.20918929453
1.21000946085
1.21081229413
1.21151074961
1.21204120758
1.21236717974
1.21247689376
1.21237739998
1.21208790567
1.21163407506
1.21104382026
1.21034418305
1.20955841843
1.20870195014
1.20777482808
1.20677030606
1.20577620115
1.20484112716
1.20398716973
1.20323029324
1.20257827506
1.20203346468
1.20159412762
1.20125902194
1.20103827276
1.2009598615
1.20097685746
1.20104567406
1.20113361948
1.2012084936
1.20124401166
1.2012222881
1.20113379098
1.20097339867
1.20072132007
1.20038246508
1.20000588557
1.19960397265
1.19918979685
1.19877550924
1.19837128375
1.19798471912
1.19762075163
1.19728196482
1.19696920609
1.19668196379
1.19641887175
1.19617811575
1.19595778518
1.19575607329
1.19557130409
1.19540156854
1.19524371431
1.19509746034
1.19496409718
1.19483625046
1.19470907532
1.19457774444
1.19443725633
1.19428242068
1.19410811445
1.19390960722
1.19368311507
1.19342543936
1.19313203632
1.19279787943
1.19244143999
1.19225656852
1.19307308295
1.19559277126
1.20065817521
1.21017364067
1.22862065047
1.2675895244
1.15117706105
1.20791117659
1.22352048909
1.2265609541
1.22714914505
1.22739550069
1.2276133487
1.22782500238
1.22801962718
1.22818893554
1.22832975631
1.22843961967
1.22854743602
1.22865756243
1.22878135799
1.22892458625
1.22908369914
1.22924425825
1.22938325007
1.22947546722
1.22950106624
1.22945030839
1.22932360535
1.2291283229
1.22887501655
1.22857480169
1.22823810301
1.22787428654
1.22749165965
1.22709754848
1.22669835143
1.22629955256
1.22590571154
1.22552045728
1.2251465092
1.22478574078
1.22443929345
1.22410774054
1.22379129439
1.22349004496
1.22320420827
1.22293435608
1.22268159786
1.22244767827
1.22223495735
1.22204625021
1.22188450855
1.22175235224
1.22165148931
1.22158209577
1.22154226806
1.22152767889
1.22153155388
1.22154503129
1.22155787178
1.22155938629
1.22153938757
1.22148897097
1.22140100022
1.22127028214
1.22109350834
1.22086908981
1.22059700543
1.22027874146
1.21991734127
1.21951754201
1.2190859592
1.21863127992
1.21816442889
1.21769867132
1.21724960289
1.21683494084
1.21647397538
1.21618649378
1.21599098058
1.21590196688
1.21592664867
1.21606142215
1.21628966836
1.21658226931
1.2169012915
1.21720581174
1.21745796842
1.21762749499
1.2176939169
1.2176465498
1.21748306126
1.21720750594
1.21682852823
1.2163580721
1.21581062245
1.21520281814
1.21455324187
1.21388228069
1.21321212617
1.21256720226
1.21197544299
1.21147031613
1.21109552312
1.21090598586
1.2109401982
1.21119970762
1.21165960488
1.21227152826
1.21296249059
1.21364749105
1.21424498962
1.21469010458
1.2149420023
1.21498485697
1.21482402867
1.21448012309
1.21398311774
1.21336747155
1.21266796266
1.21191538876
1.21113137274
1.21032253566
1.20948993946
1.20866219374
1.20786662916
1.20713370548
1.20649202825
1.20597108646
1.2056103766
1.20546157619
1.20552292476
1.20578420293
1.20620557519
1.20672287884
1.20726105885
1.20774848419
1.20812793603
1.20836213704
1.20843395007
1.20834305794
1.20810107368
1.2077262737
1.20723686823
1.20663601299
1.20587789279
1.20503774386
1.20417704231
1.20333459128
1.20254018533
1.20181334196
1.20116519506
1.20060231458
1.20012249974
1.19971934799
1.19938562409
1.19911582709
1.19892089538
1.1987955991
1.19870556214
1.19863301359
1.19856312099
1.19848124651
1.19837158025
1.1982116474
1.19801221947
1.19778869606
1.19754326097
1.19728046932
1.19700620781
1.19672650581
1.19644712233
1.19617312452
1.19590864076
1.19565655203
1.19541870127
1.195195983
1.19498853549
1.19479596703
1.19461759235
1.19445259686
1.19430012164
1.19415922082
1.19402866742
1.19390751003
1.19379412633
1.19368583223
1.19357957237
1.19347202694
1.19335973166
1.19323911106
1.19310646539
1.19295792466
1.19278926986
1.19259509028
1.19236673394
1.19209274042
1.19178418396
1.19158838614
1.19199347236
1.19400617201
1.19861773765
1.20785251887
1.22663157175
1.26726317262
1.14978664476
1.20778238328
1.22325777148
1.22613295449
1.22662463581
1.22680825993
1.2269864639
1.22717671511
1.22736340546
1.22753341959
1.22767668978
1.22782544865
1.22795649122
1.22806924282
1.22816490634
1.22824108738
1.22829055354
1.22830165928
1.2282607878
1.22815610737
1.22798090229
1.22773490204
1.22742337208
1.22705501507
1.22663992735
1.22618825486
1.22570955294
1.22521258079
1.22470528079
1.22419479903
1.22368748966
1.22318889095
1.22270368149
1.22223563503
1.2217875947
1.22136148414
1.22095836909
1.22057857995
1.22022189629
1.21988778641
1.21957569006
1.21928531646
1.2190169287
1.21877158007
1.21855125913
1.21835890753
1.21819827324
1.21807356814
1.21798891938
1.21794762863
1.21795129679
1.21799892721
1.2180861712
1.21820491196
1.21834336597
1.21848679323
1.2186187624
1.21872275877
1.21878380979
1.21878979631
1.21873222934
1.21860644547
1.21841133122
1.21814877631
1.21782305791
1.2174402975
1.21700805391
1.21653505828
1.216031074
1.21550687369
1.21497435413
1.21444683435
1.21393956962
1.21347042802
1.21306046134
1.21273369613
1.21251505578
1.21242550825
1.21247541
1.21266009246
1.21295865527
1.21333632384
1.21374944732
1.21415169021
1.21450018361
1.21476040981
1.21490903331
1.21493453956
1.21483610012
1.21462136936
1.21430387275
1.21390038579
1.21342842752
1.21290387268
1.2123388464
1.2117406376
1.21111367265
1.21048752417
1.20990677457
1.20940127556
1.20900549961
1.2087622035
1.20869230597
1.20880855482
1.20910665148
1.20955453419
1.21009568312
1.2106592758
1.21117357871
1.21157852326
1.21183385196
1.21192158435
1.21184354118
1.21161562505
1.21126023887
1.21079661205
1.21022575661
1.20950938
1.20869324799
1.20783784436
1.20699129631
1.2061913562
1.20546505147
1.20483056485
1.20430054803
1.20389114746
1.20361261892
1.20345388287
1.20342321093
1.20351298021
1.20369786419
1.20393804857
1.20418668959
1.20439854692
1.20453660378
1.20457517983
1.20450000834
1.20430718986
1.20399813701
1.20354497303
1.20297691058
1.20235193127
1.20169893294
1.20104546348
1.2004147666
1.19982300791
1.19927983005
1.19879673813
1.19837409134
1.19800824137
1.19769395424
1.19742368921
1.19718847008
1.19698890622
1.1968318229
1.1967019733
1.1965815307
1.19645550985
1.19631434857
1.19616214839
1.195997382
1.19582005232
1.19563142223
1.19543381097
1.19523022051
1.19502388952
1.19481812818
1.19461595248
1.19441993477
1.19423205474
1.19405367475
1.19388562162
1.19372825185
1.19358154992
1.19344523948
1.19331886927
1.19320185481
1.19309347328
1.1929928296
1.19289885346
1.19281017449
1.19272510446
1.19264170891
1.19255788999
1.19247147605
1.19238026274
1.19228197708
1.19217411514
1.19205347609
1.19191499749
1.19175001339
1.19154939705
1.1913365931
1.1912745724
1.191764823
1.19340229387
1.19748553401
1.20632739865
1.22521860659
1.26695501967
1.14853421093
1.20749797584
1.22287658784
1.22563317397
1.2260118072
1.22609186956
1.22617924586
1.22629112155
1.22640760194
1.22653194077
1.22667363548
1.22679491175
1.22688821298
1.22694901952
1.22697245528
1.22695232177
1.22688099592
1.2267502724
1.22655302409
1.22628505994
1.22594632969
1.22554096201
1.22507629706
1.22456152781
1.22400651844
1.22342104426
1.22281441534
1.22219533547
1.22157186413
1.22095140031
1.22034065006
1.21974556789
1.21917127806
1.21862199117
1.21810093591
1.21761032681
1.21715138374
1.21672441572
1.21632897633
1.2159640831
1.21562849273
1.21532101214
1.21504081657
1.21478774881
1.21456256475
1.21436709081
1.21420426175
1.21407800439
1.21399293954
1.21395388498
1.21396515851
1.21402971308
1.21414818339
1.2143179718
1.21453254898
1.214781167
1.21504914504
1.21531878905
1.21557086916
1.21578642812
1.21594859168
1.2160440459
1.21606394107
1.21600413623
1.215864855
1.21564992599
1.21536580868
1.21502057092
1.21462293079
1.2141814432
1.21370393222
1.21319735111
1.21266837707
1.21212517711
1.21158078426
1.21105785166
1.21059146769
1.21022131836
1.20996512519
1.20983349088
1.20983034873
1.20995042044
1.21017707711
1.21048297508
1.21083290621
1.21118815248
1.21151138102
1.21177099214
1.21194404803
1.21201737822
1.21198694537
1.21185580429
1.21163098308
1.21131930073
1.21092149306
1.21042338982
1.20983580818
1.20921756844
1.20860570673
1.20803177306
1.20752171092
1.20709838668
1.20678547658
1.20658089679
1.20650041952
1.20655354508
1.2067341706
1.20701776463
1.20736356744
1.2077215052
1.20804106316
1.20827933408