/*--------------------------------*- C++ -*----------------------------------*\
  =========                 |
  \\      /  F ield         | OpenFOAM: The Open Source CFD Toolbox
   \\    /   O peration     | Website:  https://openfoam.org
    \\  /    A nd           | Version:  12
     \\/     M anipulation  |
\*---------------------------------------------------------------------------*/
FoamFile
{
    format      ascii;
    class       volScalarField;
    location    "10";
    object      T;
}
// * * * * * * * * * * * * * * * * * * * * * * * * * * * * * * * * * * * * * //

dimensions      [0 0 0 1 0 0 0];

internalField   nonuniform List<scalar> 
40000
(
297.975111966
289.228968059
287.387685736
286.616629856
286.240216091
286.098876885
286.138255812
286.219015839
286.321492616
286.44249747
286.58220786
286.740966996
286.917527771
287.104603257
287.275535948
287.430616876
287.568311454
287.685415446
287.777388058
287.839105945
287.865641095
287.8530399
287.799343604
287.705416665
287.574503891
287.410681974
287.218135972
287.001994538
286.768579448
286.523951325
286.271974019
286.013773872
285.748717201
285.475604714
285.193263135
284.902331293
284.605355458
284.306503236
284.011091019
283.724738146
283.452439104
283.197860693
282.963156245
282.749081017
282.555391852
282.381299334
282.226191734
282.089309755
281.966483811
281.85623371
281.757416459
281.668988598
281.589990168
281.519526075
281.456748503
281.400844384
281.351029802
281.306550916
281.266692044
281.230781154
281.198190582
281.168335996
281.140685612
281.114793679
281.090310395
281.066967452
281.04455953
281.022928439
281.001951223
280.981532755
280.961601371
280.942105616
280.923009944
280.904288432
280.885917162
280.86786733
280.850101328
280.832572641
280.815230598
280.798032083
280.78096433
280.764075491
280.747361617
280.730818226
280.714412336
280.698049026
280.681671955
280.665219097
280.648599246
280.631726704
280.614523348
280.596913912
280.578817673
280.56014301
280.540793354
280.520688834
280.499801623
280.478191386
280.456023855
280.433578538
280.411292717
280.389835571
280.369482375
280.350186032
280.331527659
280.312642005
280.292279773
280.269642595
280.245371301
280.21930442
280.191336537
280.161559539
280.130265802
280.097959346
280.065326094
280.033110055
280.001921342
279.972078159
279.943564478
279.91610635
279.889301278
279.862731108
279.83602766
279.808895851
279.781112679
279.752519897
279.723021087
279.692577581
279.661212699
279.629018789
279.596157686
279.562850476
279.529355162
279.495935172
279.462825988
279.430208605
279.398195863
279.366832651
279.336106696
279.305964966
279.276330376
279.247116482
279.218239801
279.18962995
279.161237766
279.133041251
279.105048719
279.077298285
279.049853438
279.022795497
278.996215175
278.97020471
278.944851148
278.920231398
278.896409162
278.873433603
278.851339394
278.830147723
278.809867753
278.790498103
278.772028059
278.75443841
278.737702038
278.721784583
278.706645549
278.692240009
278.678520534
278.665438866
278.652946955
278.640996754
278.629538406
278.618517566
278.607873169
278.597536275
278.58742993
278.577469795
278.567565208
278.557620363
278.547535386
278.537207282
278.526530883
278.51539994
278.503708461
278.491352293
278.478230864
278.464249002
278.4493188
278.433361392
278.416308459
278.398100602
278.378785591
278.342189899
278.275520501
278.163701144
277.984543262
277.704978247
277.275056611
276.615032924
275.581072236
273.833897429
298.567579701
288.479951081
286.164178624
285.265837905
284.891348162
284.765275375
284.775959005
284.82781231
284.904938242
285.004295756
285.126211724
285.271914468
285.442491754
285.639426139
285.869726503
286.102425545
286.331415572
286.548194181
286.74288889
286.904424471
287.01985092
287.074334397
287.054537165
286.954636407
286.779285459
286.539174847
286.244385789
285.907425776
285.548685445
285.19043681
284.846500445
284.519356014
284.206082521
283.916031496
283.644775205
283.387400613
283.146403083
282.923757938
282.720585039
282.537133782
282.372911088
282.22685316
282.097570282
281.983496148
281.883065981
281.794803297
281.717269292
281.649123089
281.589144416
281.536304735
281.489651461
281.448283335
281.411341074
281.378006016
281.347504482
281.319117532
281.292197399
281.266194676
281.240698821
281.215490889
281.190574895
281.166164681
281.142610278
281.12028525
281.099484051
281.08036402
281.062933639
281.047074734
281.032581404
281.019198632
281.006649392
280.994648284
280.982906755
280.971138824
280.959074262
280.946480073
280.933185648
280.919104967
280.90425016
280.888731798
280.872743103
280.856528468
280.840351016
280.824406103
280.808820258
280.793643061
280.778849195
280.764515852
280.750851366
280.738054821
280.726174411
280.715067218
280.704423028
280.693826489
280.682829584
280.671014221
280.658047681
280.643707009
280.6278782
280.610559036
280.591860453
280.57203619
280.551568357
280.530736029
280.510065843
280.489831754
280.470140079
280.451031068
280.433002854
280.417405784
280.40468802
280.394696395
280.387028174
280.381181181
280.376580361
280.37256219
280.368392899
280.363322488
280.356650326
280.347816051
280.336479823
280.32256749
280.306276941
280.288049809
280.268517234
280.248442666
280.228660779
280.209969432
280.193123395
280.17879357
280.167523493
280.159705051
280.155564135
280.155152635
280.15834734
280.16485737
280.174240869
280.185929838
280.199263395
280.213530278
280.22800767
280.242009816
280.254948784
280.266402814
280.276182302
280.284377956
280.291372256
280.29779853
280.304452111
280.312176877
280.32177356
280.333934862
280.349204971
280.367964641
280.390434598
280.416690657
280.446685682
280.480274374
280.51723721
280.557300023
280.600146072
280.645419151
280.692719038
280.741595851
280.791557168
280.842098393
280.892747791
280.943120037
280.992977968
281.042267684
281.091093262
281.139654423
281.188194784
281.236968396
281.286216332
281.336155814
281.386980943
281.438866956
281.49196856
281.546407163
281.602248099
281.659473251
281.717955095
281.777433442
281.837484947
281.897467121
281.95642802
282.012971324
282.065126371
282.099414966
282.095806333
282.057301912
281.969478399
281.806500213
281.529031727
281.077216077
280.358512519
279.22294657
277.40516774
274.339476631
299.333825291
288.298654869
285.572885174
284.61842022
284.284859775
284.168533941
284.150278698
284.168519658
284.211413717
284.27629851
284.36302744
284.472165279
284.604292072
284.760436944
284.953029627
285.191321552
285.459854872
285.736342446
285.993381167
286.197476747
286.309244302
286.287739675
286.10789004
285.784855304
285.378496121
284.962890239
284.598316385
284.266240242
283.962074742
283.684190935
283.430343544
283.19860101
282.988061903
282.79843521
282.628361684
282.477053845
282.343735535
282.227299241
282.126351436
282.039331868
281.964632092
281.900684204
281.846018572
281.799285333
281.759257253
281.724812453
281.694914521
281.668607943
281.645015641
281.623342739
281.602888686
281.583067489
281.563427187
281.543662109
281.52361471
281.503267755
281.482731875
281.462234824
281.44211367
281.422801997
281.4048015
281.388617076
281.374674154
281.363248402
281.354428804
281.348119742
281.344070589
281.341913237
281.341192776
281.341387348
281.341923996
281.342201961
281.341623985
281.339644329
281.335830443
281.329923302
281.321880081
281.311887414
281.30034084
281.287794071
281.274890114
281.262272952
281.250510934
281.240066953
281.231292624
281.224458677
281.219799177
281.217531187
281.217871025
281.220921105
281.22651555
281.234135302
281.242904087
281.251681655
281.259207934
281.264260009
281.265808382
281.263142212
281.255951587
281.24436932
281.22896456
281.210677565
281.190688837
281.170236549
281.150498109
281.132917593
281.118857034
281.10965104
281.106581905
281.110769273
281.122832231
281.142505202
281.168761264
281.200060889
281.234521766
281.270033271
281.304381156
281.335403078
281.361165205
281.38015777
281.391480657
281.394978179
281.391287003
281.381774267
281.368373451
281.353365747
281.339159753
281.328061254
281.322127147
281.323067531
281.33218065
281.350319641
281.37788525
281.41483531
281.460704391
281.514630891
281.575391583
281.641443617
281.710982306
281.782017451
281.852467453
281.920284733
281.983625727
282.041064514
282.091815751
282.135911197
282.174266171
282.208574028
282.24103176
282.273997514
282.309697069
282.350017175
282.396400896
282.449824057
282.510821133
282.579539268
282.655806755
282.739205638
282.829139156
282.924885197
283.025626986
283.130456739
283.238354228
283.348156085
283.458555261
283.568175331
283.675693599
283.779979613
283.880283106
283.976366516
284.068425233
284.156900876
284.242383688
284.325507196
284.40685982
284.486948678
284.566213309
284.645054229
284.723838172
284.802860531
284.882271035
284.96198661
285.041617956
285.120423569
285.197272944
285.270562588
285.338048519
285.391349333
285.420534176
285.425934334
285.404533598
285.342621638
285.21832559
284.997433535
284.626637006
284.022758622
283.05410172
281.502744088
278.975567045
274.614466976
300.112605323
288.390960776
285.337867706
284.372601434
284.088169437
283.996727851
283.970380709
283.978107642
284.010084531
284.065309356
284.144191125
284.247003339
284.373132712
284.523200613
284.707021521
284.952582792
285.216926047
285.452485664
285.608854054
285.628740712
285.484647028
285.20506362
284.841485525
284.457423081
284.100037233
283.788752352
283.522189014
283.290994134
283.089458643
282.913484441
282.76010726
282.627188777
282.513037847
282.416046771
282.334555388
282.266931497
282.211542741
282.166789122
282.131152732
282.103235628
282.0817763
282.065645765
282.053829736
282.045403999
282.039510897
282.035342362
282.032134142
282.029172369
282.025811567
282.02149865
282.015800624
282.008430269
281.999264409
281.988350836
281.975904189
281.96229372
281.948026395
281.933727285
281.920113918
281.907958499
281.898031986
281.891026575
281.887472838
281.887672484
281.891665621
281.899235084
281.90993663
281.92313906
281.938063403
281.953819128
281.969443894
281.983955956
281.99642086
282.00603241
282.012200198
282.014628544
282.013369502
282.008836372
282.001772078
281.993176121
281.984200715
281.976029991
281.969767788
281.966358145
281.966548071
281.970890253
281.979766898
281.993413185
282.011902397
282.035034301
282.062197929
282.092291812
282.12373903
282.154605324
282.182793537
282.206279295
282.223353716
282.232838095
282.234245987
282.227873547
282.214799255
282.196780151
282.176044277
282.155050253
282.136328463
282.12233977
282.115408044
282.11767642
282.130998025
282.156704293
282.1952771
282.24610419
282.307514066
282.376960713
282.451234554
282.526676636
282.599423328
282.665696205
282.722136505
282.766166849
282.796329335
282.812524662
282.816085584
282.809636343
282.796748458
282.781495933
282.768027421
282.760219397
282.761444933
282.774426623
282.801160784
282.842892641
282.900122354
282.972628076
283.059497505
283.159164822
283.269454528
283.387637052
283.510505782
283.63448703
283.755793019
283.870638918
283.975553867
284.067803434
284.145856638
284.209768427
284.261358883
284.304016842
284.34209046
284.380110164
284.422166975
284.471547341
284.530608872
284.600813196
284.682830942
284.776676463
284.881853408
284.997499072
285.122515193
285.255672078
285.395671062
285.541149144
285.690622361
285.842387493
285.994441093
286.144555374
286.290504009
286.430362934
286.563318443
286.690476073
286.810464769
286.920106644
287.020112542
287.112237198
287.198081701
287.278825476
287.355428391
287.428910339
287.500462339
287.571305399
287.642359056
287.7138744
287.785166402
287.854519214
287.919268713
287.975805878
288.01896983
288.050951098
288.070696851
288.072056443
288.045285811
287.974715697
287.835080764
287.585777524
287.161884353
286.460016215
285.314631897
283.446795261
280.337516623
274.79450848
300.852204614
288.555557797
285.216424676
284.281589652
284.04287187
283.970544136
283.946979006
283.950839852
283.979761975
284.03521371
284.119417987
284.234375914
284.378515195
284.540000639
284.690405541
284.838868288
284.95617986
285.004694606
284.952415345
284.786700167
284.527824056
284.220527267
283.910980763
283.631380587
283.394273443
283.198379611
283.037142751
282.904242392
282.795045461
282.706111618
282.634780508
282.578852447
282.536370981
282.505516429
282.484597002
282.472066337
282.466535759
282.466782475
282.471745428
282.480507333
282.492265892
282.506299882
282.521936087
282.538522061
282.555409593
282.571950923
282.587508352
282.601476572
282.613314146
282.622579544
282.628967549
282.632340155
282.632747988
282.630439271
282.6258559
282.619619222
282.612507892
282.605428386
282.59937568
282.595379291
282.594430177
282.597391537
282.604907922
282.617331411
282.634680441
282.6566351
282.682561838
282.711555909
282.742492684
282.774085903
282.804956791
282.83371877
282.859079079
282.879954059
282.895586987
282.905650594
282.910314406
282.910260281
282.906637487
282.900960464
282.894963779
282.890438149
282.889075813
282.892347947
282.901427107
282.91715267
282.940024768
282.970206246
283.007498462
283.051263784
283.100330544
283.152940317
283.206784263
283.25914551
283.307134773
283.347989098
283.379393194
283.399779962
283.408569712
283.406308816
283.394671162
283.376304685
283.3545492
283.33310976
283.315757042
283.306076568
283.307308829
283.322225181
283.352988855
283.400938259
283.46629918
283.547970538
283.64349723
283.749194761
283.860364354
283.971579893
284.077062144
284.171151577
284.248872293
284.306553418
284.342414555
284.356954806
284.353020549
284.335464814
284.310390658
284.284244063
284.263103498
284.25224857
284.25597403
284.277547778
284.319232648
284.382328381
284.467213002
284.573375852
284.699441064
284.843183631
285.001543042
285.170642387
285.345824478
285.521722583
285.692389192
285.851526046
285.992888647
286.110989369
286.20209341
286.265215469
286.303219822
286.322746114
286.332717663
286.34210457
286.358323428
286.386668136
286.430552059
286.491764827
286.5707801
286.667074844
286.779435206
286.906241559
287.045728714
287.196213969
287.356279795
287.524876607
287.701304054
287.885092007
288.075847955
288.273841292
288.47495287
288.662224333
288.825616056
288.960162131
289.068122396
289.158300709
289.236681019
289.306905782
289.370904719
289.429562928
289.483411582
289.533214021
289.580261066
289.626283944
289.673029452
289.721710699
289.772613721
289.825028159
289.877493423
289.928129104
289.974775645
290.014753502
290.043996504
290.056388291
290.042108984
289.984800362
289.856992973
289.612838022
289.176922733
288.427948453
287.17370843
285.082952905
281.514889637
274.927488015
301.523011623
288.690605778
285.13745419
284.259500279
284.057395334
283.994020782
283.96749922
283.963782247
283.983066444
284.02650117
284.093191851
284.178310361
284.270943726
284.353530027
284.427236648
284.473026998
284.47174847
284.406330634
284.271394811
284.078945221
283.85632732
283.634517271
283.436270089
283.271907603
283.141840066
283.041766103
282.966547622
282.9118341
282.874209773
282.850941968
282.839752812
282.838668022
282.845940073
282.860025084
282.879584934
282.903485878
282.930786508
282.960714802
282.992635461
283.026011193
283.060362213
283.095228752
283.130141314
283.164601375
283.198075439
283.230003171
283.259818135
283.286979875
283.311013467
283.331551829
283.348377085
283.361455661
283.370962849
283.377294285
283.381062569
283.383079431
283.384325174
283.385906345
283.389001765
283.394795952
283.404398731
283.41875435
283.438549541
283.464135245
283.495475495
283.532129844
283.573267625
283.617708291
283.663982324
283.710410633
283.755204026
283.796584847
283.832928873
283.862919135
283.885696378
283.900984646
283.909167714
283.911295898
283.909014165
283.9044183
283.899861025
283.89774109
283.900306358
283.909495674
283.926830908
283.953355124
283.989602658
284.035580329
284.090734436
284.153892119
284.223200837
284.296111553
284.369450647
284.43960718
284.50283512
284.555645183
284.595239164
284.619923789
284.629432824
284.625085881
284.609720896
284.587382163
284.562842036
284.541107764
284.527017207
284.524971782
284.538788831
284.571595656
284.625699635
284.702390239
284.8016816
284.922077653
285.060436618
285.211948381
285.370215522
285.527451833
285.674846777
285.803157624
285.903585239
285.968967769
285.995226429
285.982686374
285.936815467
285.867921472
285.788982415
285.712640563
285.649389912
285.606973766
285.590485233
285.602869543
285.645500839
285.718642675
285.821738949
285.953560669
286.112258509
286.295363671
286.499762419
286.721652766
286.956477541
287.19881713
287.44221986
287.678980422
287.899972791
288.095017071
288.252247567
288.344819667
288.365230744
288.325832362
288.25233312
288.174456125
288.110984253
288.065548073
288.043184792
288.047176889
288.078565467
288.136518246
288.218894406
288.322826428
288.445276819
288.583572218
288.73595345
288.902155244
289.083894081
289.285582711
289.499333079
289.705205779
289.883862283
290.036585174
290.166486787
290.276425586
290.369321
290.448261777
290.516275326
290.576092944
290.629960834
290.679529235
290.725867357
290.769638885
290.81141208
290.852007996
290.892712434
290.935173647
290.981029622
291.031364723
291.086313778
291.144976686
291.205553672
291.265382044
291.320636359
291.365592541
291.390802611
291.379573576
291.301819061
291.104786573
290.70031855
289.950910569
288.648891145
286.419974155
282.505051472
275.033052442
302.107832285
288.761818923
285.092432015
284.278283487
284.102508079
284.04033508
284.003412794
283.981876235
283.976175833
283.986056639
284.008801832
284.03915712
284.070158316
284.095762345
284.108868357
284.09417156
284.043074448
283.952652412
283.829069288
283.687211958
283.545840101
283.420762663
283.320735165
283.247676544
283.199328291
283.171949545
283.161848417
283.165876738
283.181416971
283.206261091
283.238511074
283.27652217
283.318880086
283.36439502
283.412096178
283.461216202
283.511164322
283.561490565
283.611843955
283.661929003
283.711465006
283.760151982
283.807647714
283.853558255
283.897443147
283.93883564
283.977275029
284.012347409
284.043730366
284.071235351
284.094842942
284.114727362
284.131267494
284.14504453
284.156827886
284.167551191
284.178280185
284.190172567
284.204427897
284.222225132
284.244646002
284.272586533
284.306664794
284.34713683
284.393833027
284.446124176
284.502921009
284.562706754
284.623602237
284.683465008
284.740024594
284.791054053
284.834572587
284.869064059
284.893684599
284.90842449
284.914188333
284.912764835
284.906676845
284.898933418
284.892734399
284.891186687
284.897075401
284.912706158
284.939811566
284.979502504
285.032239847
285.097802975
285.175235887
285.262766682
285.357721089
285.456471883
285.554476647
285.646455527
285.726748652
285.789870381
285.831240753
285.848019255
285.839890199
285.809577394
285.762822036
285.70763678
285.652990876
285.607429168
285.578104384
285.570427358
285.588199608
285.633940602
285.709164721
285.814480016
285.949505795
286.112688912
286.301105956
286.510294435
286.734114591
286.964629054
287.19199857
287.40442193
287.588227064
287.728441221
287.810524078
287.81882199
287.744036043
287.601214218
287.422678531
287.233187879
287.054003148
286.902971253
286.792125538
286.727646411
286.711086928
286.74093885
286.813978659
286.926181659
287.073231101
287.25074916
287.454385185
287.679860174
287.92300964
288.179805096
288.446237976
288.717870781
288.988518661
289.235842787
289.433176633
289.583907077
289.692703776
289.760066905
289.784288926
289.760887352
289.695133863
289.614498652
289.534257819
289.466460603
289.419965856
289.399912023
289.408073941
289.443657586
289.504293993
289.58717319
289.690676207
289.817984342
289.970633006
290.131164865
290.287247061
290.435759141
290.574115094
290.700816836
290.815413548
290.918157732
291.009755547
291.0911897
291.163567283
291.228014805
291.285610365
291.337353648
291.384172547
291.426955879
291.466565636
291.503783812
291.539679275
291.57556238
291.612805752
291.652865997
291.69727138
291.747411131
291.804253946
291.868247037
291.938939678
292.014795884
292.091664013
292.156673123
292.176269604
292.083576296
291.759168216
291.053980275
289.760692634
287.470196113
283.306566247
275.121465177
302.605652094
288.784513979
285.083494611
284.327941601
284.172261302
284.109918321
284.062272676
284.022154352
283.990770858
283.968570731
283.954349672
283.945627212
283.939339311
283.931323192
283.911855747
283.875876944
283.821369848
283.750834731
283.671641365
283.594196122
283.528583606
283.481587822
283.455729811
283.450198766
283.462457146
283.489504784
283.528508383
283.576982479
283.632777505
283.694029768
283.759123482
283.826672366
283.895513999
283.964706565
284.033519533
284.101413702
284.168010225
284.233050735
284.296351459
284.357755267
284.417087228
284.474118614
284.528544946
284.579983119
284.627989819
284.672101863
284.711895551
284.747057356
284.777456047
284.803203619
284.824692218
284.842598822
284.85785549
284.871590853
284.88505588
284.899548948
284.916352825
284.936689171
284.961686933
284.992354828
285.029546412
285.073909345
285.125818072
285.185297127
285.251946389
285.324879511
285.402685055
285.483417774
285.564626749
285.643429453
285.716644723
285.78099853
285.833410336
285.871352657
285.893252281
285.898871271
285.88957666
285.868394455
285.839769519
285.809039927
285.781751626
285.763005872
285.757001215
285.766830398
285.79448933
285.841002476
285.90656925
285.990665714
286.092070415
286.208811731
286.338055351
286.475962761
286.617556729
286.756633802
286.885774852
286.996528434
287.07988136
287.127183697
287.131679097
287.090602584
287.007345815
286.892273936
286.761149691
286.631853222
286.520924013
286.441112302
286.400452841
286.402621767
286.447984508
286.534718354
286.659629336
286.818572532
287.006575782
287.217829804
287.44568659
287.682753864
287.921100061
288.15247648
288.368365815
288.559175796
288.711920885
288.81816296
288.875919424
288.874151489
288.80040118
288.666354769
288.490202869
288.294658475
288.103502868
287.937405409
287.811386244
287.734000021
287.707961828
287.731570601
287.800290182
287.908086857
288.048409447
288.21491357
288.402144974
288.606501354
288.828043282
289.068465543
289.306789671
289.53132127
289.736680014
289.918936624
290.076127177
290.207602408
290.313711172
290.394697918
290.44807198
290.467035042
290.462923583
290.446279847
290.425012597
290.406908486
290.398320534
290.403570995
290.42496614
290.463751803
290.524730731
290.606742135
290.697938517
290.795333388
290.895768498
290.996300404
291.094457806
291.18838875
291.276884344
291.359305856
291.435436565
291.505391178
291.5694937
291.628178695
291.681905586
291.731109675
291.77619541
291.817624996
291.856165059
291.891881961
291.924458364
291.955694075
291.98677232
292.018873059
292.053219892
292.091083819
292.133720893
292.182292954
292.237732284
292.300830117
292.372709776
292.454616601
292.542035781
292.587397367
292.387156876
291.770958913
290.540025752
288.255553296
283.927585035
275.19895
303.028251476
288.795383628
285.111017267
284.404268271
284.267948333
284.210890837
284.160454697
284.111469633
284.066440417
284.027279878
283.994716391
283.969316399
283.944394115
283.918942485
283.890337471
283.857249713
283.820501642
283.783429278
283.751344432
283.730060739
283.724152376
283.735864913
283.76510767
283.810190696
283.868690761
283.938055548
284.015890375
284.100042078
284.188598534
284.279870702
284.372380494
284.464858142
284.556245142
284.645696467
284.732576408
284.816444537
284.897029912
284.974193445
285.047880084
285.118063438
285.184687944
285.247615226
285.306581479
285.361174513
285.410838185
285.454909765
285.4926944
285.523574825
285.547147326
285.563367133
285.572676756
285.576086492
285.575179652
285.57202799
285.569025324
285.568670438
285.573344874
285.585131025
285.605699337
285.636268202
285.677618042
285.730130108
285.793821655
285.868359444
285.953047061
286.046791388
286.148057378
286.254820362
286.364524391
286.474055364
286.579741025
286.677398663
286.762464387
286.830248934
286.87636681
286.897368367
286.891544685
286.859749104
286.805917622
286.736937692
286.661766765
286.590049588
286.530691509
286.490798308
286.475170503
286.486313936
286.524783786
286.589647421
286.678904132
286.789783368
286.918916968
287.062423601
287.215951805
287.374707035
287.533446856
287.68637614
287.826841992
287.946852678
288.035962875
288.081048207
288.072909515
288.01118781
287.901870459
287.756544955
287.59262458
287.430302588
287.288864855
287.18358887
287.124045074
287.11391641
287.151925478
287.233237116
287.350829115
287.4966257
287.662462595
287.841094097
288.027425231
288.219908907
288.418316153
288.615838886
288.805937649
288.981290302
289.134987069
289.259885116
289.34643005
289.38214664
289.367419827
289.30471697
289.203651204
289.079672807
288.950803681
288.834186707
288.743467103
288.687501807
288.670344158
288.692056182
288.749879829
288.839487543
288.956579823
289.10046752
289.282221142
289.483908358
289.69082177
289.893634714
290.085141718
290.260583299
290.417208582
290.553366239
290.669531435
290.767207777
290.84811242
290.913551867
290.96085072
290.991260649
291.013116535
291.030729338
291.047699301
291.067581204
291.094216607
291.133069989
291.181532931
291.235870831
291.29555906
291.359495689
291.426253086
291.494366447
291.562434185
291.629220767
291.693717403
291.75521799
291.813268805
291.867647251
291.91831542
291.965365152
292.008960447
292.049297376
292.086583303
292.121047275
292.152987513
292.182635203
292.210386062
292.236896132
292.262912883
292.289249107
292.316753562
292.346302905
292.378805024
292.41521049
292.456556653
292.504174763
292.560193778
292.627436549
292.703198663
292.751294641
292.651806145
292.158492273
291.034443582
288.809312286
284.387813359
275.269641599
303.394516917
288.82600718
285.172079905
284.503373841
284.389332569
284.346765367
284.305466643
284.261389133
284.218149752
284.178784
284.145618865
284.111191418
284.080870845
284.054787467
284.032660793
284.01504265
284.003603607
284.001034737
284.010484098
284.034690346
284.075214568
284.13213332
284.204247099
284.289562745
284.385763241
284.490516649
284.601623115
284.717061955
284.834996417
284.953769209
285.071902038
285.188101939
285.301272382
285.410524817
285.51518574
285.614795118
285.709092913
285.79799117
285.881531398
285.959828787
286.033006085
286.101123626
286.164112394
286.221718237
286.273467462
286.318662408
286.356415833
286.385731576
286.405633962
286.415342632
286.414479042
286.403277733
286.382763539
286.354848405
286.322305863
286.28860225
286.257598107
286.233170317
286.218831617
286.217424978
286.230943714
286.26048753
286.306328
286.368036541
286.444627638
286.534684421
286.63645196
286.747897151
286.866739268
286.990453085
287.116239693
287.240954153
287.360982293
287.472079192
287.569233362
287.646717483
287.69858587
287.719834779
287.7079931
287.66417644
287.593369396
287.503851532
287.405993598
287.310776865
287.228334256
287.166803524
287.131672841
287.125644065
287.148909375
287.199673141
287.274764744
287.370251009
287.482022004
287.606351396
287.740393847
287.882444697
288.031474828
288.180465159
288.318790901
288.439301292
288.533724206
288.591799658
288.608488695
288.580733609
288.509585722
288.402753709
288.273780609
288.139580852
288.017226445
287.920961472
287.860296261
287.839456321
287.857991938
287.912139482
287.996612493
288.106888752
288.242786571
288.413509268
288.608252112
288.812648533
289.015214291
289.206888809
289.381139774
289.533534076
289.660959229
289.759462746
289.826515849
289.864743491
289.872130448
289.850507895
289.805986409
289.748168818
289.68833975
289.637380901
289.604182587
289.594906418
289.61297816
289.659346018
289.733697316
289.842788592
289.979656369
290.13038744
290.288043905
290.445985971
290.598587164
290.741912922
290.873596699
290.990813865
291.093442005
291.182336872
291.25874605
291.324484449
291.381722326
291.430301305
291.468550542
291.500175823
291.529516049
291.560221551
291.594623944
291.631725903
291.671901959
291.715153995
291.761176588
291.809406222
291.85911202
291.909504347
291.959774999
292.009186584
292.057109188
292.10305708
292.146695033
292.1878186
292.226338366
292.262256063
292.295637445
292.326591324
292.355259361
292.38181735
292.40648353
292.429519332
292.451259973
292.47211886
292.492570043
292.513127922
292.534325288
292.556703275
292.580820202
292.607291493
292.636904194
292.67090327
292.711420248
292.760702933
292.812997716
292.828242311
292.707782946
292.306157666
291.309439679
289.174269779
284.715603128
275.336421034
303.725175958
288.893863121
285.260800707
284.619216781
284.531316253
284.512735868
284.492460787
284.466505137
284.439486147
284.410649974
284.377795958
284.349682059
284.328056708
284.313964285
284.308532425
284.31319647
284.329724047
284.360021256
284.405749462
284.467895752
284.54649329
284.640610402
284.748571734
284.868270161
284.997438403
285.13382382
285.27527498
285.419774167
285.565446373
285.710563559
285.853552974
285.993011856
286.127727049
286.256695873
286.379143541
286.494532106
286.602557133
286.703129042
286.796337316
286.882399315
286.961595611
287.034196572
287.100387033
287.160195265
287.21343452
287.259665438
287.298186832
287.328063153
287.348195269
287.357438652
287.354769135
287.339488467
287.311450476
287.271277144
287.220522741
287.161739159
287.098405089
287.034705486
286.975180623
286.92429914
286.886033045
286.863512957
286.858819024
286.872926404
286.905787894
286.956512635
287.023594101
287.105148817
287.199140035
287.303567853
287.41660216
287.536615205
287.662040436
287.790952795
287.9202643
288.044587806
288.155557915
288.243691091
288.304722646
288.336091161
288.336839837
288.308225903
288.254227648
288.181383195
288.098098099
288.013597137
287.936755038
287.875066408
287.833959395
287.816543952
287.823770301
287.85491657
287.908328302
287.982409139
288.077015948
288.195563035
288.335531403
288.482949843
288.628996
288.766123544
288.888099908
288.989411966
289.064344725
289.113356368
289.132640735
289.119909396
289.076632762
289.008711983
288.92593543
288.840303927
288.763896923
288.706951798
288.676693082