/*--------------------------------*- C++ -*----------------------------------*\
  =========                 |
  \\      /  F ield         | OpenFOAM: The Open Source CFD Toolbox
   \\    /   O peration     | Website:  https://openfoam.org
    \\  /    A nd           | Version:  12
     \\/     M anipulation  |
\*---------------------------------------------------------------------------*/
FoamFile
{
    format      ascii;
    class       volVectorField;
    location    "10";
    object      U;
}
// * * * * * * * * * * * * * * * * * * * * * * * * * * * * * * * * * * * * * //

dimensions      [0 1 -1 0 0 0 0];

internalField   nonuniform List<vector> 
40000
(
(-0.0255455596885 0.0167537715173 0)
(-0.0332530635451 0.0010897375376 0)
(-0.028288977053 -0.00471160871169 0)
(-0.0171357030076 -0.00779832292938 0)
(-0.00360928426838 -0.00850236957143 0)
(0.0113481508687 -0.00718044981898 0)
(0.0216665017614 -0.00554597309093 0)
(0.030913053945 -0.00424939770549 0)
(0.038622425676 -0.00321690899195 0)
(0.0448255539842 -0.00230075144579 0)
(0.0495974771471 -0.00142390090397 0)
(0.0529386961865 -0.000565919400611 0)
(0.0548300370028 0.000245546829395 0)
(0.0553049913574 0.000919639600583 0)
(0.0545368421361 0.00137069910402 0)
(0.052684694462 0.00167997059675 0)
(0.0499961251216 0.00186603027921 0)
(0.0467419439746 0.00191069480811 0)
(0.0432349245626 0.00180386030804 0)
(0.0397970270538 0.00155708192138 0)
(0.036702056314 0.00120263193458 0)
(0.0341508138241 0.000777904194602 0)
(0.0322671036489 0.000330890637936 0)
(0.0310729968403 -8.13560088044e-05 0)
(0.0304662138762 -0.000416520643734 0)
(0.0302463220287 -0.000669225366009 0)
(0.0302061820172 -0.000876824719793 0)
(0.0302098750828 -0.00104555575983 0)
(0.0301726901953 -0.00114988429124 0)
(0.0300095025159 -0.00116848595805 0)
(0.029634853979 -0.0010932124703 0)
(0.0289871175957 -0.000926951685897 0)
(0.02803372419 -0.000683636227929 0)
(0.0267712047892 -0.000417174548064 0)
(0.0252307607431 -0.000185890529283 0)
(0.0234732368409 -1.15929484082e-06 0)
(0.0215528418329 0.000147240752738 0)
(0.0195090423325 0.000268167049195 0)
(0.0173725206628 0.000368263312504 0)
(0.0151675237063 0.000451916433903 0)
(0.0129168150685 0.000522221759883 0)
(0.0106415415348 0.000578843903085 0)
(0.00836178911208 0.000622821482022 0)
(0.00610605203382 0.000653276793808 0)
(0.00389252872624 0.000666554118954 0)
(0.00174907754859 0.000667104992785 0)
(-0.000296523538695 0.000648504410901 0)
(-0.00220482113383 0.000623752281903 0)
(-0.00396689684618 0.000591005709876 0)
(-0.00556722261971 0.000550989777057 0)
(-0.00699296703948 0.000505616114779 0)
(-0.00823770195718 0.000457716458235 0)
(-0.00930225448481 0.000410643922885 0)
(-0.010195448725 0.000368021706626 0)
(-0.0109344407525 0.000333356094256 0)
(-0.0115447577466 0.000309427669174 0)
(-0.012060172273 0.000297412803196 0)
(-0.0125216463706 0.000297757660259 0)
(-0.0129710327227 0.00031320952908 0)
(-0.0134477958802 0.000341538092114 0)
(-0.0139908142611 0.000371912238195 0)
(-0.0146300691543 0.000389999358877 0)
(-0.0153697781301 0.000386881002495 0)
(-0.0162048462532 0.000361561672456 0)
(-0.0171331821912 0.000320731834583 0)
(-0.0181494372045 0.000274891799356 0)
(-0.0192468311494 0.000234590001795 0)
(-0.0204170062773 0.000207784021355 0)
(-0.0216463700464 0.000197823554724 0)
(-0.0229119792084 0.000202948467702 0)
(-0.0241793808687 0.000217337412999 0)
(-0.025404108809 0.000233009130807 0)
(-0.0265372695706 0.000242526167143 0)
(-0.0275338577149 0.000241002242478 0)
(-0.0283607441278 0.000226738585407 0)
(-0.029001845205 0.00020108105329 0)
(-0.0294596299658 0.00016795847901 0)
(-0.0297534192473 0.000132684751856 0)
(-0.0299152234736 0.000100045378482 0)
(-0.0299816043172 7.15240796252e-05 0)
(-0.0299832997434 4.02606546121e-05 0)
(-0.0299599307051 -1.2708751847e-05 0)
(-0.02990101858 -0.000113305250721 0)
(-0.0298149150772 -0.000264300335049 0)
(-0.0297305362628 -0.000447971402514 0)
(-0.0296957460568 -0.000610029426944 0)
(-0.0298268235359 -0.000675794340951 0)
(-0.0302628619528 -0.000632797443153 0)
(-0.0311087572588 -0.000487848310513 0)
(-0.0323917558624 -0.000269343686673 0)
(-0.034065495272 -2.06301986008e-05 0)
(-0.0360248882402 0.000214226240881 0)
(-0.0381267958732 0.000402588128964 0)
(-0.0402154717679 0.000528938489526 0)
(-0.0421466776796 0.00059053716734 0)
(-0.0438102944751 0.000587874479812 0)
(-0.0451373867269 0.000529037263456 0)
(-0.04609593549 0.000430656663121 0)
(-0.0466928370216 0.000315047615127 0)
(-0.0469668859341 0.000206261035748 0)
(-0.0469645201462 0.000114382293311 0)
(-0.0467913678037 -8.4109079443e-06 0)
(-0.0464129188047 -0.000239063253883 0)
(-0.0458200461558 -0.000589396602037 0)
(-0.0450560265718 -0.00102654157006 0)
(-0.0442677932794 -0.00143972610753 0)
(-0.0436670271676 -0.00161099185662 0)
(-0.0435604014166 -0.0013445598766 0)
(-0.0446598257332 -0.000744589189892 0)
(-0.0468839840568 -9.1785473603e-05 0)
(-0.050056532813 0.000475063604126 0)
(-0.0539634849029 0.00093258628975 0)
(-0.0583861082411 0.00129887166769 0)
(-0.0631115712596 0.0015879097298 0)
(-0.0679282614913 0.00179449058292 0)
(-0.0726317127777 0.00189684694131 0)
(-0.0770354625629 0.00187794155956 0)
(-0.0809797359516 0.00173981060668 0)
(-0.0843468315659 0.00150289128779 0)
(-0.0870758423111 0.0011998332824 0)
(-0.0891695108287 0.00086915343904 0)
(-0.0906930694181 0.000549976087186 0)
(-0.0917654912465 0.000276703174919 0)
(-0.0925461037359 7.30547644881e-05 0)
(-0.0932225362928 -4.95302530291e-05 0)
(-0.0939918120743 -8.06668003734e-05 0)
(-0.0950371375069 -1.09724765616e-05 0)
(-0.0965229059822 0.000154404130285 0)
(-0.0985892108049 0.000404196325258 0)
(-0.101338453858 0.000724267853969 0)
(-0.104830495948 0.00109793998917 0)
(-0.109081508076 0.00150559484406 0)
(-0.114064926727 0.0019249307573 0)
(-0.119714461122 0.00233210047127 0)
(-0.125929095006 0.0027034335574 0)
(-0.132579662555 0.00301726714311 0)
(-0.139516537069 0.00325541516937 0)
(-0.146578734903 0.00340420618618 0)
(-0.153603479596 0.00345613298251 0)
(-0.160434435236 0.00341165334149 0)
(-0.166930803423 0.00327885302512 0)
(-0.172978661305 0.00307329415618 0)
(-0.178502837272 0.00281788035607 0)
(-0.183477275677 0.00254149665009 0)
(-0.187930995996 0.00227596271305 0)
(-0.191946332504 0.00205140117868 0)
(-0.195647280698 0.00189105721445 0)
(-0.199179739912 0.00180805745033 0)
(-0.202689881632 0.00180488083046 0)
(-0.206307959278 0.00187393911474 0)
(-0.210138615291 0.00200102364887 0)
(-0.214255877121 0.00216927567477 0)
(-0.21870261624 0.00236176949136 0)
(-0.223493041443 0.00256288848364 0)
(-0.228616871359 0.00275910476222 0)
(-0.234044324364 0.00293942987058 0)
(-0.239731280483 0.00309560052597 0)
(-0.245624069724 0.00322196126161 0)
(-0.251663435972 0.00331506940624 0)
(-0.257787323727 0.00337312894539 0)
(-0.2639323452 0.00339542284295 0)
(-0.270034151854 0.00338194554507 0)
(-0.276027848602 0.00333353938619 0)
(-0.281850355847 0.00325273085223 0)
(-0.287445230624 0.00314455696885 0)
(-0.292768533127 0.00301649649997 0)
(-0.297795205558 0.00287846303079 0)
(-0.302524720698 0.00274243299912 0)
(-0.306981233874 0.00261952838766 0)
(-0.311206459841 0.00251690082188 0)
(-0.315250641671 0.00243765504931 0)
(-0.319166176039 0.00238223298617 0)
(-0.323003007479 0.00234884823677 0)
(-0.32680487097 0.00233406419137 0)
(-0.330607405781 0.00233392021873 0)
(-0.334438240871 0.00234471748463 0)
(-0.33831795918 0.0023631340005 0)
(-0.342260806121 0.00238584759588 0)
(-0.346274553871 0.00240902619896 0)
(-0.350359534712 0.00242796001177 0)
(-0.354507246705 0.00243690030023 0)
(-0.358698898995 0.00242898152353 0)
(-0.362903750152 0.00239590790154 0)
(-0.36707668656 0.00232687078381 0)
(-0.371155336638 0.00220647210474 0)
(-0.375057775924 0.00201234129921 0)
(-0.378675816351 0.00171283102112 0)
(-0.381843760603 0.00126190831422 0)
(-0.384267910947 0.000585235977603 0)
(-0.385488210656 -0.000446398842874 0)
(-0.384997727274 -0.00203525086468 0)
(-0.382091125952 -0.00425520912218 0)
(-0.375569395284 -0.00734322841267 0)
(-0.363771131215 -0.0116233818818 0)
(-0.344337532737 -0.0174573811286 0)
(-0.313986705902 -0.0252048156577 0)
(-0.268797171133 -0.0351484411994 0)
(-0.206176453851 -0.0471575113426 0)
(-0.1300260707 -0.0592307619536 0)
(-0.0587706029116 -0.0622830943806 0)
(-0.0203257113615 0.0397849001444 0)
(-0.026462685034 0.00517003516474 0)
(-0.0236110985201 -0.0126686718037 0)
(-0.0134295832013 -0.0205201618346 0)
(-0.00199938591567 -0.0217355305991 0)
(0.0101672052696 -0.0192295123233 0)
(0.0198870083724 -0.0160944571402 0)
(0.0290316201877 -0.0135413656666 0)
(0.0371936608943 -0.0113545400978 0)
(0.0443081495651 -0.00928646559949 0)
(0.0503718013615 -0.00720116597768 0)
(0.0553419286923 -0.00505068548888 0)
(0.0591410671219 -0.00285752879685 0)
(0.0617253067799 -0.000719329328438 0)
(0.0629714993553 0.00122084772444 0)
(0.0627323448254 0.00287207884432 0)
(0.0611917131337 0.0041345926399 0)
(0.0586017627199 0.00491548193317 0)
(0.0552895811993 0.00519565446862 0)
(0.0515956587732 0.00502252043168 0)
(0.0478069282524 0.00448547678212 0)
(0.0441384161024 0.0036865325242 0)
(0.0407383680571 0.00275056128157 0)
(0.0376382993115 0.00184802024415 0)
(0.0347089483774 0.00117965639465 0)
(0.0316904573058 0.000904073408333 0)
(0.0283520255628 0.000901299682046 0)
(0.024611916643 0.00106535679878 0)
(0.020486275317 0.00137013712451 0)
(0.0160389758796 0.0017866622623 0)
(0.0113794669915 0.00225567207576 0)
(0.00660684365397 0.00271514327153 0)
(0.00174553747928 0.00312680730934 0)
(-0.0030019055429 0.00346001688247 0)
(-0.00765435150324 0.00371559521682 0)
(-0.0122704289005 0.00391009388835 0)
(-0.0168336525734 0.00405416842066 0)
(-0.0213359945678 0.00415655369664 0)
(-0.0257633642836 0.00422319686711 0)
(-0.0300987123819 0.0042572939395 0)
(-0.0343226736369 0.00425974634115 0)
(-0.0384150310733 0.00422948352614 0)
(-0.0423534173817 0.00416424072826 0)
(-0.0461157871366 0.00406126586961 0)
(-0.0496803290188 0.00391864205928 0)
(-0.0530223150885 0.00373491218491 0)
(-0.0561250284161 0.00350644521168 0)
(-0.0589684417681 0.00324632358103 0)
(-0.061536393202 0.00295644230166 0)
(-0.0638195942496 0.00264253526542 0)
(-0.0658165520719 0.00231293281909 0)
(-0.0675343038637 0.00197802055913 0)
(-0.068989765295 0.00164975649073 0)
(-0.0702105731139 0.00134127591441 0)
(-0.0712355542168 0.00106635086961 0)
(-0.0721147537909 0.000839211078738 0)
(-0.0729072876307 0.000673895036917 0)
(-0.0736793448303 0.000582716065223 0)
(-0.074504978819 0.000573319121635 0)
(-0.0754535987306 0.000645141297508 0)
(-0.0765823919578 0.000789977882895 0)
(-0.0779372987964 0.000991131549603 0)
(-0.0795471307013 0.00122595112581 0)
(-0.0814142520967 0.00147156487126 0)
(-0.0835157845546 0.00171087662994 0)
(-0.0858107051851 0.00193202000742 0)
(-0.0882429539457 0.00212467305065 0)
(-0.0907459734129 0.00227681134508 0)
(-0.0932482500354 0.002373410917 0)
(-0.0956797395695 0.00239789157095 0)
(-0.0979776583736 0.00233677380885 0)
(-0.10008964246 0.00218523075569 0)
(-0.101975493574 0.00194987801093 0)
(-0.103609401678 0.00164867709516 0)
(-0.104982382428 0.00130853023607 0)
(-0.106104453204 0.000961074089943 0)
(-0.107005680587 0.000637548589856 0)
(-0.107735140351 0.000363833372419 0)
(-0.108357878273 0.000156679028827 0)
(-0.108949450855 2.27032683777e-05 0)
(-0.109589166623 -4.00645699127e-05 0)
(-0.110363755332 -4.0659992741e-05 0)
(-0.111376470183 1.61842135876e-05 0)
(-0.112701290355 0.000142757167026 0)
(-0.114391816778 0.000367160287671 0)
(-0.116465240893 0.00072982329546 0)
(-0.118863135558 0.00124330907249 0)
(-0.121505923285 0.00185741589401 0)
(-0.12433260931 0.00249655285985 0)
(-0.127309013247 0.0030680959248 0)
(-0.130387099949 0.00348964512507 0)
(-0.13349885464 0.00370889902319 0)
(-0.136557068298 0.00370655794759 0)
(-0.139463841746 0.00349127412205 0)
(-0.142120606903 0.00309203974684 0)
(-0.144434129389 0.00255267962289 0)
(-0.146337053428 0.0019296543013 0)
(-0.147803790451 0.00128459855992 0)
(-0.148848993348 0.000677414694263 0)
(-0.149523874685 0.000159527908316 0)
(-0.149911669446 -0.000236884916764 0)
(-0.150142792681 -0.000508904932632 0)
(-0.150474651523 -0.000653185967478 0)
(-0.151129321537 -0.000645031679893 0)
(-0.152340147521 -0.000423796181041 0)
(-0.154253808519 0.000100434808403 0)
(-0.15688162948 0.00101852780375 0)
(-0.159957555452 0.00230099173571 0)
(-0.163230482421 0.00371882916704 0)
(-0.167043462542 0.00504732411588 0)
(-0.171487454125 0.00617618517598 0)
(-0.176516444285 0.00704813639481 0)
(-0.181991933231 0.00762803655691 0)
(-0.187724197014 0.00789434325631 0)
(-0.193505480853 0.00784067279364 0)
(-0.199125472687 0.00748018071299 0)
(-0.204390240342 0.00685129004601 0)
(-0.209142068772 0.00601603232034 0)
(-0.21326686618 0.00505475416926 0)
(-0.216703344565 0.0040594896412 0)
(-0.219450603717 0.00312545384803 0)
(-0.221570033928 0.00234127456067 0)
(-0.223179701517 0.0017789799772 0)
(-0.224440073587 0.00148621290591 0)
(-0.22553318902 0.00148406264318 0)
(-0.226650865459 0.00177140617392 0)
(-0.227987411522 0.00232660145665 0)
(-0.229708025505 0.00310900157594 0)
(-0.231946622952 0.0040659583803 0)
(-0.234802263377 0.00513673205116 0)
(-0.238332804673 0.00625665820909 0)
(-0.242552674901 0.00736117013899 0)
(-0.247433738027 0.00838933760351 0)
(-0.252908646987 0.00928685497872 0)
(-0.258876079183 0.0100084433693 0)
(-0.265207282547 0.0105196252122 0)
(-0.27175346021 0.0107977957309 0)
(-0.278353440992 0.0108328412082 0)
(-0.284841900888 0.0106281934414 0)
(-0.29105919349 0.0102017910507 0)
(-0.296860168882 0.0095865605607 0)
(-0.302124151881 0.00883124310115 0)
(-0.306766952157 0.0080000406716 0)
(-0.310752641466 0.00716873872154 0)
(-0.31410175306 0.00641684197036 0)
(-0.316892113114 0.00581605849611 0)
(-0.319248746775 0.00541677890166 0)
(-0.321323983019 0.00523925730062 0)
(-0.323274946891 0.00527407784205 0)
(-0.325243524066 0.00548966433505 0)
(-0.327343448995 0.00584231778285 0)
(-0.329655121479 0.00628466164494 0)
(-0.332225520439 0.00677128996576 0)
(-0.335070969658 0.00726197221999 0)
(-0.338181459512 0.00772339986166 0)
(-0.341525876857 0.00812992962394 0)
(-0.345057575225 0.00846349737272 0)
(-0.348719700802 0.00871278188151 0)
(-0.352449693185 0.00887176437025 0)
(-0.356182517701 0.00893787626473 0)
(-0.359852387543 0.00891014361561 0)
(-0.363393027757 0.00878798626936 0)
(-0.366737411882 0.00857156327733 0)
(-0.369819352711 0.008264820098 0)
(-0.37257842291 0.00787980157713 0)
(-0.374966092031 0.00743811849635 0)
(-0.376952197381 0.00697094018757 0)
(-0.378532749568 0.00651780390573 0)
(-0.37973265279 0.00611615831857 0)
(-0.38059734275 0.00578913261372 0)
(-0.381180942281 0.00554487847335 0)
(-0.381539370791 0.00538289797212 0)
(-0.381725796466 0.00529626804937 0)
(-0.381785765678 0.0052729918809 0)
(-0.381754775145 0.00529967068544 0)
(-0.381659000264 0.00536397725864 0)
(-0.38151720792 0.00545521177433 0)
(-0.381342115321 0.00556349727415 0)
(-0.381140416725 0.00567848184484 0)
(-0.38091162367 0.00578821722425 0)
(-0.380646407565 0.00587845705205 0)
(-0.380325186941 0.00593228081366 0)
(-0.379917303322 0.00592961847424 0)
(-0.379380232897 0.0058454893358 0)
(-0.378657909348 0.00564605661285 0)
(-0.377678532828 0.00528436803312 0)
(-0.376350401629 0.00469794576408 0)
(-0.374541604889 0.00380079184815 0)
(-0.372027248079 0.00247584611327 0)
(-0.368669389112 0.000494494376563 0)
(-0.36415022599 -0.0025324890539 0)
(-0.357774826799 -0.00698346432165 0)
(-0.348661893176 -0.0134398869103 0)
(-0.335403126696 -0.0226544866023 0)
(-0.315881585852 -0.0354803289257 0)
(-0.287107541859 -0.0527479271573 0)
(-0.245456187497 -0.0750000854675 0)
(-0.188118628418 -0.101575120428 0)
(-0.117105123449 -0.127223502697 0)
(-0.0483404010049 -0.130196614802 0)
(-0.0160378448739 0.0600004526557 0)
(-0.0198629821025 0.0102708138785 0)
(-0.0174797339443 -0.0189553460636 0)
(-0.00976033753001 -0.030109557258 0)
(-0.00234672737071 -0.0310583712607 0)
(0.00539893288183 -0.0280804100164 0)
(0.0123949030271 -0.0243866705778 0)
(0.0191743118441 -0.0211806259392 0)
(0.025427482542 -0.0182628388498 0)
(0.0310231681616 -0.0154037097949 0)
(0.0358926471875 -0.0124588501988 0)
(0.0399648451972 -0.00936556852354 0)
(0.0431563833484 -0.0061384909106 0)
(0.0454529534289 -0.00293910789445 0)
(0.0469246139508 0.000161076797715 0)
(0.0466803341044 0.00306550214513 0)
(0.0448518018429 0.00557600452978 0)
(0.0417088062023 0.00745961112263 0)
(0.0376056536527 0.00860711625278 0)
(0.0328871552587 0.00903128447066 0)
(0.0278338171956 0.00884584621134 0)
(0.0225895564279 0.00815751423525 0)
(0.0171951842902 0.00719836164191 0)
(0.0116189578144 0.00635012129911 0)
(0.00580890561284 0.00595500226897 0)
(-0.000325404785593 0.00608711491811 0)
(-0.00635407664991 0.00649596626615 0)
(-0.0124088172504 0.00697984129267 0)
(-0.0184722567572 0.00745767976391 0)
(-0.0245090818073 0.00789159955445 0)
(-0.0304935303963 0.00826201275921 0)
(-0.0364079252236 0.00856166888165 0)
(-0.0422384508353 0.00878650891421 0)
(-0.0479683369738 0.00895108192583 0)
(-0.0535891234224 0.00906972911856 0)
(-0.0590822911223 0.00914091935802 0)
(-0.0644330782754 0.00916015347141 0)
(-0.0696303910847 0.00912810848669 0)
(-0.0746632725898 0.00904636525794 0)
(-0.0795205104359 0.00891567027471 0)
(-0.0841905945217 0.00873542097258 0)
(-0.0886619769422 0.00850374323984 0)
(-0.0929233410701 0.00821818812162 0)
(-0.0969640506865 0.00787650743245 0)
(-0.100774450045 0.00747766842137 0)
(-0.104346757236 0.00702289241629 0)
(-0.1076766093 0.00651612974558 0)
(-0.110761903331 0.00596736416262 0)
(-0.11360482632 0.00538812719191 0)
(-0.116213409269 0.0047929497792 0)
(-0.118601972791 0.00419973529184 0)
(-0.12079084189 0.00362933176441 0)
(-0.12280584233 0.00310458855516 0)
(-0.124677416212 0.00264966531046 0)
(-0.126439491768 0.00228858660265 0)
(-0.128128358434 0.00204318526363 0)
(-0.129781300702 0.0019305618748 0)
(-0.131435249484 0.0019591928208 0)
(-0.133125538686 0.0021257889831 0)
(-0.134884904486 0.00241495355593 0)
(-0.136745848711 0.00279821429376 0)
(-0.138738990345 0.0032367314685 0)
(-0.140887635939 0.00368934940525 0)
(-0.143202605731 0.00411942065942 0)
(-0.145678175306 0.00449680874554 0)
(-0.148290837678 0.00479820665222 0)
(-0.151001181742 0.00500599025936 0)
(-0.153758155054 0.00510667021329 0)
(-0.156504602981 0.00509021559188 0)
(-0.159182486476 0.00495069200375 0)
(-0.161737343495 0.00468860411901 0)
(-0.164123197567 0.00431387486875 0)
(-0.166305536081 0.00384762831129 0)
(-0.168262670419 0.00332211039264 0)
(-0.169986882956 0.00277834573875 0)
(-0.171485857089 0.00226197046957 0)
(-0.172783800039 0.0018180217473 0)
(-0.173921157655 0.00148554941054 0)
(-0.174952365278 0.00129304691166 0)
(-0.175942690893 0.00125554512045 0)
(-0.176967204269 0.00137292142853 0)
(-0.178105068378 0.00162953442127 0)
(-0.179429201125 0.00200085743031 0)
(-0.180999422602 0.00245954033949 0)
(-0.18285481862 0.00298337505992 0)
(-0.185009968471 0.00355895199181 0)
(-0.18745356415 0.00418585693075 0)
(-0.190143297543 0.00486040031677 0)
(-0.193020865743 0.00553354458905 0)
(-0.196023599986 0.00612474346039 0)
(-0.199085857066 0.00654648356045 0)
(-0.202140895847 0.00672733197194 0)
(-0.205118281922 0.00662621578895 0)
(-0.207944909182 0.0062387153275 0)
(-0.210549923173 0.00559656329954 0)
(-0.212870578154 0.0047613596329 0)
(-0.21486110482 0.00381383764675 0)
(-0.216501866447 0.00284590273653 0)
(-0.217804573572 0.00195296922637 0)
(-0.218813145914 0.0012247333471 0)
(-0.219602685817 0.000734746310476 0)
(-0.220283226073 0.000530464098669 0)
(-0.220998508414 0.000619964686547 0)
(-0.221883528641 0.000987113163722 0)
(-0.223044377222 0.00162870815022 0)
(-0.22460047378 0.00254950974114 0)
(-0.226629371661 0.00377148537102 0)
(-0.229159014034 0.0053120801778 0)
(-0.23215774278 0.00710273500429 0)
(-0.235576700156 0.00894382289848 0)
(-0.239381361715 0.010605925254 0)
(-0.243520153952 0.011924255875 0)
(-0.247900587385 0.0128001216603 0)
(-0.252394002325 0.0131832166049 0)
(-0.256851329479 0.0130612134375 0)
(-0.2611193231 0.0124572578309 0)
(-0.265055894425 0.0114279856981 0)
(-0.268544684415 0.0100630029307 0)
(-0.271506508857 0.00848241478659 0)
(-0.273907968486 0.00682917197642 0)
(-0.275766242723 0.00525609791221 0)
(-0.277148653336 0.00390959156978 0)
(-0.278165281942 0.00291205450561 0)
(-0.278954185309 0.00234803257992 0)
(-0.279662872236 0.00225866972573 0)
(-0.280433717657 0.00264195122102 0)
(-0.281397152962 0.00346025132428 0)
(-0.282663639071 0.00464974247651 0)
(-0.284316857554 0.00612503736448 0)
(-0.286410543524 0.00778606727943 0)
(-0.288967346869 0.00952591086825 0)
(-0.291978863109 0.0112380374137 0)
(-0.295406993045 0.0128223135251 0)
(-0.299186743957 0.0141898057531 0)
(-0.303230350446 0.0152665353139 0)
(-0.307432494027 0.0159962737024 0)
(-0.311676186112 0.0163424124153 0)
(-0.315838517961 0.0162890251961 0)
(-0.319796439949 0.0158413631982 0)
(-0.323432757733 0.0150263376635 0)
(-0.326642080105 0.0138943080738 0)
(-0.329338308724 0.0125222513328 0)
(-0.331465460827 0.0110162506039 0)
(-0.333009782502 0.0095069949018 0)
(-0.334009001083 0.00813520386258 0)
(-0.334554902546 0.00703013200023 0)
(-0.334782208457 0.00628129471598 0)
(-0.334842320159 0.00591889987472 0)
(-0.334874414337 0.00591730814082 0)
(-0.334987056731 0.0062161354466 0)
(-0.335252504676 0.00673763605075 0)
(-0.335709050131 0.00739978341644 0)
(-0.336366816295 0.00812531513627 0)
(-0.337213736154 0.00884642568111 0)
(-0.338220791058 0.0095074857843 0)
(-0.3393469213 0.0100661691326 0)
(-0.340543708133 0.0104931496425 0)
(-0.341759613541 0.010770529745 0)
(-0.342943454248 0.0108891939814 0)
(-0.344046647884 0.0108454082591 0)
(-0.345023655638 0.0106374275217 0)
(-0.345830213345 0.0102636535862 0)
(-0.346419547911 0.00972428244331 0)
(-0.346740260052 0.00902861123442 0)
(-0.346741687011 0.00820578830676 0)
(-0.346382583777 0.00730335526006 0)
(-0.345638036057 0.00637765665478 0)
(-0.344514211422 0.0054958841441 0)
(-0.343059600027 0.00471632409898 0)
(-0.341348160185 0.00406177889143 0)
(-0.339451976872 0.00353039526975 0)
(-0.337432929689 0.00311949561004 0)
(-0.335343651356 0.00282195900634 0)
(-0.333224181889 0.00261854744778 0)
(-0.331100297749 0.00248665883839 0)
(-0.328987578861 0.00240653951955 0)
(-0.326896002232 0.00236237730057 0)
(-0.32483249618 0.00233986711101 0)
(-0.322801054263 0.00232277711025 0)
(-0.320801297049 0.00229053827194 0)
(-0.318826732797 0.00221770510284 0)
(-0.316863654681 0.00207512912957 0)
(-0.314891480989 0.00183213457802 0)
(-0.31288426034 0.00145695886372 0)
(-0.31081025479 0.000912023027523 0)
(-0.308628095338 0.000146336928309 0)
(-0.306285040791 -0.00091202936459 0)
(-0.303854749293 -0.00236551886105 0)
(-0.301403456274 -0.00438509819653 0)
(-0.29872155369 -0.00728010077398 0)
(-0.295446165388 -0.0115222608822 0)
(-0.291117225577 -0.017873915216 0)
(-0.285022492667 -0.0272846108844 0)
(-0.275989673703 -0.0409717954812 0)
(-0.262135686386 -0.0603778740618 0)
(-0.240698676364 -0.0869538840671 0)
(-0.208214728583 -0.121588966416 0)
(-0.161472825059 -0.162940951025 0)
(-0.100379951343 -0.202197973309 0)
(-0.0390812616061 -0.204114767653 0)
(-0.0131414747112 0.0757123570058 0)
(-0.0155856871686 0.0135640064817 0)
(-0.0135667673612 -0.0240352806455 0)
(-0.00882543343002 -0.0360581729284 0)
(-0.00492121699077 -0.0363719274762 0)
(-0.00109053685165 -0.0334800005919 0)
(0.00304831317886 -0.0297240312028 0)
(0.00707967978173 -0.0262973510867 0)
(0.0108860619289 -0.0230040836667 0)
(0.0142873039987 -0.0196631424031 0)
(0.0171766272688 -0.0161498903709 0)
(0.0194567998109 -0.0124228554832 0)
(0.0209730647159 -0.00853006571268 0)
(0.0220468076873 -0.00449641678259 0)
(0.0204790934246 0.000169226859615 0)
(0.0182537780186 0.00507281849881 0)
(0.0152072559414 0.00911906616941 0)
(0.0113478948665 0.0120210301364 0)
(0.00685080007238 0.0137707264832 0)
(0.00182225806298 0.0144458041818 0)
(-0.00346825697289 0.0142959244526 0)
(-0.00909242413266 0.0137464202867 0)
(-0.0151128970429 0.0131511801954 0)
(-0.021483129895 0.0127572139131 0)
(-0.0281077667109 0.0126450322405 0)
(-0.0348654087363 0.0127462173788 0)
(-0.041636950412 0.013025404703 0)
(-0.048363528089 0.0133905723519 0)
(-0.0549992794512 0.0137704711895 0)
(-0.0615178051668 0.0141172402468 0)
(-0.0679015991439 0.0144015108126 0)
(-0.0741384194625 0.014607514782 0)
(-0.0802191869396 0.0147294622459 0)
(-0.0861352633882 0.0147724241082 0)
(-0.091877070224 0.0147454033563 0)
(-0.0974350961659 0.0146535359673 0)
(-0.102802748608 0.014499563676 0)
(-0.107976082499 0.0142864136481 0)
(-0.112952536898 0.0140165289584 0)
(-0.117730242517 0.0136911538652 0)
(-0.12230764522 0.0133101770297 0)
(-0.1266833481 0.0128723538321 0)
(-0.130856108794 0.0123760105331 0)
(-0.134824899533 0.0118201576003 0)
(-0.138589006456 0.0112054548559 0)
(-0.142148321467 0.0105353844261 0)
(-0.145503691142 0.00981722287174 0)
(-0.148656919774 0.00906258607711 0)
(-0.151611641128 0.0082866485938 0)
(-0.154374442468 0.00750782149305 0)
(-0.156955452785 0.00674713192483 0)
(-0.159368976614 0.00602765454225 0)
(-0.161633814874 0.0053733294505 0)
(-0.163772879852 0.00480800698277 0)
(-0.165812747225 0.00435485555287 0)
(-0.167782457655 0.00403518701704 0)
(-0.16971178237 0.00386699073971 0)
(-0.171630006997 0.00386269578381 0)
(-0.173564310943 0.00402544509453 0)
(-0.175538309699 0.00434513707907 0)
(-0.177572051852 0.00479611405968 0)
(-0.179681469116 0.00533866226263 0)
(-0.181876842395 0.00592348477101 0)
(-0.184160876088 0.00649842485568 0)
(-0.186526355602 0.00701439459456 0)
(-0.188954603991 0.00742916959135 0)
(-0.191416271518 0.00770920870541 0)
(-0.193873867931 0.00783010420813 0)
(-0.196285255158 0.00777667240669 0)
(-0.198607919559 0.0075437337547 0)
(-0.200803082326 0.00713733441754 0)
(-0.20283899673 0.00657599251544 0)
(-0.204693418171 0.00589172309531 0)
(-0.206355364958 0.00512969661192 0)
(-0.207825883161 0.00434569155453 0)
(-0.209118124165 0.00360132942339 0)
(-0.210257251478 0.00295793227424 0)
(-0.211279697097 0.00247005224109 0)
(-0.212231155629 0.00217959231083 0)
(-0.213163948572 0.00211120707602 0)
(-0.214134764687 0.00227025132785 0)
(-0.215201755983 0.00264526259735 0)
(-0.216419930306 0.00321174138416 0)
(-0.217835229632 0.0039361688546 0)
(-0.219477924978 0.00477952331879 0)
(-0.221356154759 0.00569840454554 0)
(-0.22345068294 0.00664539083982 0)
(-0.225716202619 0.00756648527537 0)
(-0.228092561398 0.00839422884339 0)
(-0.230516066308 0.00905092471326 0)
(-0.232925632417 0.00945859253946 0)
(-0.23526523913 0.00955373099165 0)
(-0.237483937323 0.00930091624247 0)
(-0.239535973707 0.00870064229678 0)
(-0.24138223127 0.00779133483694 0)
(-0.242993077311 0.00664614140445 0)
(-0.244352722275 0.00536515236622 0)
(-0.245464002148 0.00406560062156 0)
(-0.246351459814 0.00287064503241 0)
(-0.247061166237 0.00189668692241 0)
(-0.247658524029 0.00124041076747 0)
(-0.248227371431 0.000969588190704 0)
(-0.248865456689 0.00112445445271 0)
(-0.249671745444 0.00172475194962 0)
(-0.250735162138 0.00275767239631 0)
(-0.252119113138 0.00418573463932 0)
(-0.253845584766 0.00594721867258 0)
(-0.255893142272 0.00795720695583 0)
(-0.258209714675 0.0100980338159 0)
(-0.260734837504 0.0122030039401 0)
(-0.263413053142 0.0140783551765 0)
(-0.266187277436 0.0155514532102 0)
(-0.268988040745 0.0164957811012 0)
(-0.271731531682 0.0168373951242 0)
(-0.27432543005 0.0165542623162 0)
(-0.276678342311 0.015674448173 0)
(-0.278710043568 0.014273160383 0)
(-0.280361203868 0.0124692195145 0)
(-0.281602351231 0.0104201625133 0)
(-0.282441352633 0.0083123143461 0)
(-0.28292701731 0.00634269331169 0)
(-0.283147205357 0.00469564755057 0)
(-0.283218487611 0.0035180418696 0)
(-0.283265243379 0.00289921225215 0)
(-0.283397808312 0.00286916510339 0)
(-0.283701445307 0.00340921930792 0)
(-0.284234696989 0.00446157844913 0)
(-0.285031428662 0.00593957481943 0)
(-0.286104246007 0.00773563264254 0)
(-0.287447238046 0.00972829520301 0)
(-0.289037692714 0.0117895874576 0)
(-0.290837643487 0.0137924207089 0)
(-0.292795557735 0.0156174300426 0)
(-0.29484838106 0.0171588257606 0)
(-0.29692408458 0.0183290532695 0)
(-0.298944768111 0.0190622402637 0)
(-0.300830175592 0.0193165387365 0)
(-0.302501210895 0.0190754089809 0)
(-0.303882987731 0.0183477935813 0)
(-0.30490669984 0.0171683366257 0)
(-0.305509914049 0.0155999374582 0)
(-0.305638445556 0.0137403648442 0)
(-0.305257247038 0.0117295756981 0)
(-0.304370205049 0.00974391560254 0)
(-0.30303709868 0.00796737538099 0)
(-0.301382949206 0.00656738682617 0)
(-0.299585041651 0.00565600155099 0)
(-0.297825108681 0.00525787713911 0)
(-0.296236157008 0.00532273709986 0)
(-0.294885783684 0.00576150642993 0)
(-0.293789021076 0.00646031670555 0)
(-0.292924564693 0.00730440562 0)
(-0.292250314308 0.00819452013236 0)
(-0.291714098358 0.00904887310632 0)
(-0.291259364841 0.00980355521403 0)
(-0.290829324679 0.0104123575274 0)
(-0.290370426063 0.010845905577 0)
(-0.289835286477 0.0110894975987 0)
(-0.289184857888 0.0111394769057 0)
(-0.288389114033 0.0109984847228 0)
(-0.287424731903 0.0106706574455 0)
(-0.286268223368 0.0101590200427 0)
(-0.284884202162 0.00946592455927 0)
(-0.283215411277 0.00859601726315 0)
(-0.281197545964 0.00757024844654 0)
(-0.278789528868 0.00642243999686 0)
(-0.275973098389 0.00518970971099 0)
(-0.272764993672 0.00396121433619 0)
(-0.269235995803 0.00285732016668 0)
(-0.265450870933 0.00196735098249 0)
(-0.261572859014 0.00134097031332 0)
(-0.257830020062 0.000965218424654 0)
(-0.254296798138 0.000778817997134 0)
(-0.250990129317 0.000721988095982 0)
(-0.247898334254 0.000750685260023 0)
(-0.245002141092 0.000836319873385 0)
(-0.242282910132 0.000959736358064 0)
(-0.239722927797 0.00110427395396 0)
(-0.237303080755 0.00125080670188 0)
(-0.235001806247 0.00137623983157 0)
(-0.232796861476 0.00145542832634 0)
(-0.230668679238 0.00146417546335 0)
(-0.228605977621 0.00137936820059 0)
(-0.226614994273 0.00117546264615 0)
(-0.22472427041 0.000817596658035 0)
(-0.222985438829 0.000247791148616 0)
(-0.221490063877 -0.000634584441196 0)
(-0.220095781847 -0.00199035671848 0)