/*--------------------------------*- C++ -*----------------------------------*\
  =========                 |
  \\      /  F ield         | OpenFOAM: The Open Source CFD Toolbox
   \\    /   O peration     | Website:  https://openfoam.org
    \\  /    A nd           | Version:  11
     \\/     M anipulation  |
\*---------------------------------------------------------------------------*/
FoamFile
{
    format      ascii;
    class       surfaceScalarField;
    location    "3";
    object      phi;
}
// * * * * * * * * * * * * * * * * * * * * * * * * * * * * * * * * * * * * * //

dimensions      [1 0 -1 0 0 0 0];

internalField   nonuniform List<scalar> 
79600
(
-9.22402e-06
9.2223e-06
-9.75982e-06
5.33913e-07
-7.80326e-06
-1.95778e-06
-5.74546e-06
-2.05858e-06
-4.09067e-06
-1.65539e-06
-2.82594e-06
-1.26522e-06
-1.85452e-06
-9.71849e-07
-1.09479e-06
-7.60095e-07
-4.95774e-07
-5.99347e-07
-2.8979e-08
-4.67094e-07
3.2326e-07
-3.52521e-07
5.71836e-07
-2.48843e-07
7.31811e-07
-1.60229e-07
8.19798e-07
-8.82354e-08
8.54441e-07
-3.48865e-08
8.55518e-07
-1.32062e-09
8.33027e-07
2.22461e-08
8.01279e-07
3.15013e-08
7.63845e-07
3.71857e-08
7.23147e-07
4.04493e-08
6.80764e-07
4.2134e-08
6.37668e-07
4.28472e-08
5.94621e-07
4.27982e-08
5.52195e-07
4.21771e-08
5.10785e-07
4.1161e-08
4.707e-07
3.98358e-08
4.32164e-07
3.82869e-08
3.95298e-07
3.66176e-08
3.60094e-07
3.49555e-08
3.26333e-07
3.35137e-08
2.93621e-07
3.24633e-08
2.6205e-07
3.13232e-08
2.31764e-07
3.00386e-08
2.03004e-07
2.85121e-08
1.7576e-07
2.69974e-08
1.49908e-07
2.56052e-08
1.25381e-07
2.42801e-08
1.02095e-07
2.30389e-08
7.98934e-08
2.19546e-08
5.86704e-08
2.09762e-08
3.84368e-08
1.99868e-08
1.91756e-08
1.90145e-08
7.63786e-10
1.81652e-08
-1.68073e-08
1.73245e-08
-3.33816e-08
1.63277e-08
-4.89639e-08
1.53357e-08
-6.38752e-08
1.46647e-08
-7.83786e-08
1.42569e-08
-9.23133e-08
1.36882e-08
-1.05349e-07
1.27894e-08
-1.17567e-07
1.19716e-08
-1.29545e-07
1.17314e-08
-1.41738e-07
1.19466e-08
-1.53976e-07
1.19913e-08
-1.65788e-07
1.1565e-08
-1.77161e-07
1.11269e-08
-1.88785e-07
1.13774e-08
-2.01408e-07
1.23764e-08
-2.15069e-07
1.34149e-08
-2.2912e-07
1.38043e-08
-2.43055e-07
1.36888e-08
-2.57116e-07
1.38138e-08
-2.72178e-07
1.48155e-08
-2.88723e-07
1.62981e-08
-3.06154e-07
1.7184e-08
-3.23202e-07
1.68031e-08
-3.3946e-07
1.60143e-08
-3.5535e-07
1.56438e-08
-3.7134e-07
1.57432e-08
-3.87804e-07
1.62166e-08
-4.04384e-07
1.63342e-08
-4.20102e-07
1.54726e-08
-4.34455e-07
1.41071e-08
-4.47094e-07
1.23924e-08
-4.58663e-07
1.13221e-08
-4.70564e-07
1.16541e-08
-4.83937e-07
1.31256e-08
-4.98838e-07
1.4655e-08
-5.14339e-07
1.52562e-08
-5.2972e-07
1.51365e-08
-5.44571e-07
1.46067e-08
-5.59064e-07
1.42484e-08
-5.73832e-07
1.45239e-08
-5.89424e-07
1.53471e-08
-6.0576e-07
1.60922e-08
-6.22063e-07
1.60586e-08
-6.37287e-07
1.49806e-08
-6.50805e-07
1.32739e-08
-6.62787e-07
1.17361e-08
-6.73856e-07
1.08209e-08
-6.85331e-07
1.12275e-08
-6.98454e-07
1.28767e-08
-7.13685e-07
1.49862e-08
-7.30941e-07
1.70115e-08
-7.4917e-07
1.7985e-08
-7.66865e-07
1.74513e-08
-7.82824e-07
1.57155e-08
-7.96702e-07
1.36338e-08
-8.09039e-07
1.20905e-08
-8.20661e-07
1.13748e-08
-8.32808e-07
1.18989e-08
-8.46462e-07
1.34073e-08
-8.61967e-07
1.52602e-08
-8.79361e-07
1.71505e-08
-8.97907e-07
1.83009e-08
-9.1649e-07
1.83386e-08
-9.34096e-07
1.73617e-08
-9.50125e-07
1.57855e-08
-9.64592e-07
1.42226e-08
-9.78189e-07
1.3353e-08
-9.91889e-07
1.34529e-08
-1.00618e-06
1.40395e-08
-1.0215e-06
1.50837e-08
-1.03852e-06
1.67688e-08
-1.05732e-06
1.85549e-08
-1.07748e-06
1.99177e-08
-1.09832e-06
2.05938e-08
-1.1191e-06
2.05417e-08
-1.13923e-06
1.98829e-08
-1.15832e-06
1.88491e-08
-1.17631e-06
1.77443e-08
-1.19347e-06
1.69147e-08
-1.21036e-06
1.6639e-08
-1.22746e-06
1.68541e-08
-1.24497e-06
1.72654e-08
-1.26352e-06
1.83121e-08
-1.28359e-06
1.98241e-08
-1.30533e-06
2.14992e-08
-1.32869e-06
2.31149e-08
-1.35346e-06
2.45244e-08
-1.37933e-06
2.56266e-08
-1.40594e-06
2.63616e-08
-1.43289e-06
2.67021e-08
-1.4598e-06
2.66649e-08
-1.48635e-06
2.63123e-08
-1.51236e-06
2.5761e-08
-1.5378e-06
2.51955e-08
-1.56285e-06
2.4803e-08
-1.58764e-06
2.45459e-08
-1.61205e-06
2.41615e-08
-1.63612e-06
2.38282e-08
-1.66007e-06
2.37062e-08
-1.68418e-06
2.3857e-08
-1.70874e-06
2.43113e-08
-1.73402e-06
2.50411e-08
-1.7602e-06
2.59279e-08
-1.78738e-06
2.69376e-08
-1.8157e-06
2.80714e-08
-1.84526e-06
2.93176e-08
-1.87616e-06
3.06466e-08
-1.90843e-06
3.20244e-08
-1.94215e-06
3.34687e-08
-1.97747e-06
3.50761e-08
-2.01457e-06
3.68557e-08
-2.0536e-06
3.87772e-08
-2.09467e-06
4.08255e-08
-2.13792e-06
4.3006e-08
-2.18351e-06
4.53372e-08
-2.23159e-06
4.78419e-08
-2.28238e-06
5.05402e-08
-2.33609e-06
5.34574e-08
-2.39296e-06
5.66225e-08
-2.45325e-06
6.0046e-08
-2.51718e-06
6.36828e-08
-2.58489e-06
6.74572e-08
-2.65658e-06
7.14414e-08
-2.73269e-06
7.58604e-08
-2.81357e-06
8.06319e-08
-2.8997e-06
8.58827e-08
-2.99186e-06
9.19102e-08
-3.09075e-06
9.86419e-08
-3.19701e-06
1.06005e-07
-3.31126e-06
1.13996e-07
-3.43417e-06
1.22659e-07
-3.56657e-06
1.32151e-07
-3.70957e-06
1.42753e-07
-3.86451e-06
1.54693e-07
-4.03279e-06
1.68035e-07
-4.21597e-06
1.82925e-07
-4.41583e-06
1.99611e-07
-4.63439e-06
2.18311e-07
-4.87375e-06
2.39101e-07
-5.13618e-06
2.62171e-07
-5.42423e-06
2.87773e-07
-5.74071e-06
3.16169e-07
-6.08995e-06
3.48874e-07
-6.48177e-06
3.913e-07
-6.93965e-06
4.57053e-07
-7.51007e-06
5.68883e-07
-8.26969e-06
7.56592e-07
-9.31499e-06
1.03935e-06
-1.07208e-05
1.39497e-06
-1.24766e-05
1.7387e-06
-1.44352e-05
1.93597e-06
-1.63082e-05
1.84815e-06
-1.76701e-05
1.33883e-06
-1.77196e-05
3.11176e-08
-1.5647e-05
-2.08591e-06
-9.95597e-06
-5.70021e-06
-9.96122e-06
-7.35685e-06
1.65774e-05
-9.92623e-06
3.10181e-06
-9.52743e-06
-2.35732e-06
-8.29127e-06
-3.29518e-06
-6.97556e-06
-2.97145e-06
-5.77664e-06
-2.46448e-06
-4.72181e-06
-2.027e-06
-3.80137e-06
-1.68083e-06
-3.00081e-06
-1.40019e-06
-2.30945e-06
-1.15872e-06
-1.72256e-06
-9.39676e-07
-1.23612e-06
-7.35543e-07
-8.48909e-07
-5.47698e-07
-5.56309e-07
-3.81091e-07
-3.4989e-07
-2.41561e-07
-2.1913e-07
-1.32339e-07
-1.46162e-07
-5.09831e-08
-1.17245e-07
2.3204e-09
-1.18095e-07
3.77708e-08
-1.3615e-07
5.82382e-08
-1.65038e-07
7.07549e-08
-2.01093e-07
7.86356e-08
-2.41562e-07
8.29999e-08
-2.84413e-07
8.47615e-08
-3.28171e-07
8.46526e-08
-3.71805e-07
8.3203e-08
-4.14567e-07
8.07819e-08
-4.55957e-07
7.77407e-08
-4.9574e-07
7.44721e-08
-5.33896e-07
7.1404e-08
-5.70463e-07
6.87624e-08
-6.0538e-07
6.59723e-08
-6.38521e-07
6.29109e-08
-6.69677e-07
5.93996e-08
-6.98805e-07
5.58566e-08
-7.25956e-07
5.24877e-08
-7.51233e-07
4.92896e-08
-7.74784e-07
4.63212e-08
-7.96757e-07
4.36595e-08
-8.17238e-07
4.11892e-08
-8.36281e-07
3.87626e-08
-8.53962e-07
3.64275e-08
-8.70313e-07
3.42484e-08
-8.85255e-07
3.1999e-08
-8.98742e-07
2.95462e-08
-9.10938e-07
2.72639e-08
-9.22141e-07
2.56001e-08
-9.32466e-07
2.4315e-08
-9.41747e-07
2.27016e-08
-9.49865e-07
2.06397e-08
-9.57087e-07
1.89255e-08
-9.63926e-07
1.83032e-08
-9.70673e-07
1.84259e-08
-9.77179e-07
1.82295e-08
-9.83233e-07
1.7351e-08
-9.89063e-07
1.669e-08
-9.95344e-07
1.73901e-08
-1.00264e-06
1.94063e-08
-1.01091e-06
2.14161e-08
-1.01964e-06
2.22694e-08
-1.02851e-06
2.22831e-08
-1.03788e-06
2.29175e-08
-1.04851e-06
2.51802e-08
-1.06071e-06
2.82303e-08
-1.07395e-06
3.01563e-08
-1.08732e-06
2.99061e-08
-1.10012e-06
2.85474e-08
-1.11232e-06
2.7577e-08
-1.12445e-06
2.76036e-08
-1.13686e-06
2.8357e-08
-1.14923e-06
2.84331e-08
-1.16069e-06
2.66678e-08
-1.17032e-06
2.34703e-08
-1.178e-06
1.97964e-08
-1.18454e-06
1.75938e-08
-1.19132e-06
1.81677e-08
-1.19944e-06
2.09789e-08
-1.20911e-06
2.40545e-08
-1.21975e-06
2.56304e-08
-1.23048e-06
2.5599e-08
-1.2408e-06
2.46622e-08
-1.25087e-06
2.40482e-08
-1.26126e-06
2.46399e-08
-1.27241e-06
2.62303e-08
-1.28419e-06
2.76002e-08
-1.29579e-06
2.73998e-08
-1.30616e-06
2.50829e-08
-1.31452e-06
2.13604e-08
-1.32085e-06
1.77953e-08
-1.32612e-06
1.58256e-08
-1.3319e-06
1.67409e-08
-1.33967e-06
2.0376e-08
-1.35015e-06
2.51942e-08
-1.36292e-06
2.95197e-08
-1.37675e-06
3.15401e-08
-1.39004e-06
3.04791e-08
-1.40149e-06
2.68984e-08
-1.4105e-06
2.23746e-08
-1.41741e-06
1.87293e-08
-1.42341e-06
1.71078e-08
-1.43004e-06
1.82609e-08
-1.4386e-06
2.16976e-08
-1.4497e-06
2.60948e-08
-1.46307e-06
3.02503e-08
-1.47774e-06
3.27e-08
-1.49249e-06
3.28184e-08
-1.50623e-06
3.08324e-08
-1.5183e-06
2.75909e-08
-1.52866e-06
2.43188e-08
-1.53789e-06
2.23063e-08
-1.54692e-06
2.2223e-08
-1.55686e-06
2.3707e-08
-1.56857e-06
2.65203e-08
-1.58247e-06
3.04031e-08
-1.59851e-06
3.43291e-08
-1.61619e-06
3.7332e-08
-1.63475e-06
3.88821e-08
-1.65335e-06
3.88726e-08
-1.67129e-06
3.75551e-08
-1.68815e-06
3.54352e-08
-1.70383e-06
3.3163e-08
-1.71862e-06
3.14314e-08
-1.73303e-06
3.07839e-08
-1.74774e-06
3.12947e-08
-1.76346e-06
3.27118e-08
-1.78077e-06
3.53553e-08
-1.8001e-06
3.88878e-08
-1.82164e-06
4.27663e-08
-1.84532e-06
4.65254e-08
-1.87089e-06
4.98292e-08
-1.89797e-06
5.24398e-08
-1.9261e-06
5.42188e-08
-1.95478e-06
5.51125e-08
-1.98355e-06
5.5167e-08
-2.01203e-06
5.45257e-08
-2.03996e-06
5.34269e-08
-2.06723e-06
5.21966e-08
-2.09385e-06
5.11478e-08
-2.1199e-06
5.03364e-08
-2.14559e-06
4.95738e-08
-2.1711e-06
4.90742e-08
-2.19672e-06
4.90615e-08
-2.2228e-06
4.9667e-08
-2.24976e-06
5.09974e-08
-2.27799e-06
5.30092e-08
-2.3077e-06
5.53687e-08
-2.33904e-06
5.80089e-08
-2.3722e-06
6.09676e-08
-2.40739e-06
6.42361e-08
-2.44475e-06
6.774e-08
-2.48437e-06
7.13732e-08
-2.52633e-06
7.5162e-08
-2.57092e-06
7.93967e-08
-2.61844e-06
8.41045e-08
-2.66912e-06
8.91916e-08
-2.72318e-06
9.46117e-08
-2.78082e-06
1.00379e-07
-2.84229e-06
1.06542e-07
-2.90788e-06
1.13158e-07
-2.97788e-06
1.20276e-07
-3.05265e-06
1.27955e-07
-3.13257e-06
1.36269e-07
-3.21805e-06
1.45259e-07
-3.30949e-06
1.54857e-07
-3.40721e-06
1.64905e-07
-3.51156e-06
1.75524e-07
-3.6233e-06
1.87329e-07
-3.7431e-06
2.00156e-07
-3.87161e-06
2.14131e-07
-4.00981e-06
2.29834e-07
-4.15866e-06
2.47229e-07
-4.31914e-06
2.66217e-07
-4.49223e-06
2.86814e-07
-4.67895e-06
3.09109e-07
-4.88038e-06
3.33307e-07
-5.09763e-06
3.59728e-07
-5.33179e-06
3.88585e-07
-5.58384e-06
4.19817e-07
-5.85453e-06
4.53338e-07
-6.14436e-06
4.89178e-07
-6.45365e-06
5.27324e-07
-6.78208e-06
5.67257e-07
-7.12866e-06
6.08469e-07
-7.49169e-06
6.50503e-07
-7.86833e-06
6.9249e-07
-8.25472e-06
7.34889e-07
-8.64752e-06
7.83582e-07
-9.048e-06
8.56733e-07
-9.4715e-06
9.90979e-07
-9.9562e-06
1.23863e-06
-1.0564e-05
1.64204e-06
-1.13697e-05
2.19158e-06
-1.24338e-05
2.78821e-06
-1.37428e-05
3.22473e-06
-1.51115e-05
3.19335e-06
-1.60795e-05
2.28387e-06
-1.59281e-05
-1.39294e-07
-1.36278e-05
-4.4002e-06
-8.192e-06
-1.11462e-05
-1.81587e-05
-5.92403e-06
2.24999e-05
-8.82901e-06
6.00576e-06
-9.38143e-06
-1.80524e-06
-9.03786e-06
-3.63898e-06
-8.40669e-06
-3.60287e-06
-7.71613e-06
-3.15531e-06
-7.04768e-06
-2.69573e-06
-6.42935e-06
-2.29945e-06
-5.86842e-06
-1.9614e-06
-5.3638e-06
-1.66362e-06
-4.91166e-06
-1.39209e-06
-4.50752e-06
-1.13996e-06
-4.14858e-06
-9.06914e-07
-3.83343e-06
-6.9652e-07
-3.56162e-06
-5.13648e-07
-3.33268e-06
-3.61561e-07
-3.14362e-06
-2.40332e-07
-2.99384e-06
-1.47744e-07
-2.87815e-06
-7.82005e-08
-2.79242e-06
-2.77817e-08
-2.7294e-06
7.45059e-09
-2.68233e-06
3.12774e-08
-2.64643e-06
4.68065e-08
-2.61865e-06
5.66928e-08
-2.59684e-06
6.25487e-08
-2.57938e-06
6.54596e-08
-2.56511e-06
6.62174e-08
-2.55305e-06
6.53966e-08
-2.54258e-06
6.37129e-08
-2.53317e-06
6.16991e-08
-2.5243e-06
5.96081e-08
-2.51582e-06
5.72015e-08
-2.50753e-06
5.43261e-08
-2.49928e-06
5.08548e-08
-2.49087e-06
4.7163e-08
-2.48218e-06
4.35047e-08
-2.47319e-06
4.00057e-08
-2.4639e-06
3.67358e-08
-2.45432e-06
3.37864e-08
-2.44448e-06
3.10675e-08
-2.43439e-06
2.83795e-08
-2.42392e-06
2.56596e-08
-2.41294e-06
2.29785e-08
-2.40144e-06
2.02069e-08
-2.38952e-06
1.73386e-08
-2.37727e-06
1.47252e-08
-2.36463e-06
1.26634e-08
-2.35149e-06
1.08861e-08
-2.33794e-06
8.85766e-09
-2.32417e-06
6.58693e-09
-2.3103e-06
4.7628e-09
-2.29621e-06
3.92438e-09
-2.28181e-06
3.7278e-09
-2.26722e-06
3.34871e-09
-2.25275e-06
2.59768e-09
-2.23863e-06
2.27603e-09
-2.2248e-06
3.26504e-09
-2.21108e-06
5.40227e-09
-2.19747e-06
7.51259e-09
-2.18412e-06
8.62397e-09
-2.17118e-06
9.05393e-09
-2.15873e-06
1.01742e-08
-2.14671e-06
1.287e-08
-2.135e-06
1.62238e-08
-2.12362e-06
1.84915e-08
-2.11276e-06
1.87501e-08
-2.10227e-06
1.77645e-08
-2.09188e-06
1.69004e-08
-2.08147e-06
1.68992e-08
-2.07086e-06
1.74483e-08
-2.05995e-06
1.72362e-08
-2.04877e-06
1.51935e-08
-2.03718e-06
1.15877e-08
-2.02533e-06
7.66004e-09
-2.01336e-06
5.32716e-09
-2.00124e-06
5.75979e-09
-1.98898e-06
8.42519e-09
-1.97673e-06
1.15094e-08
-1.96472e-06
1.33343e-08
-1.95296e-06
1.35392e-08
-1.9414e-06
1.28114e-08
-1.93001e-06
1.23673e-08
-1.91871e-06
1.3043e-08
-1.90737e-06
1.46061e-08
-1.89593e-06
1.58612e-08
-1.8843e-06
1.54784e-08
-1.87241e-06
1.2903e-08
-1.86017e-06
8.83025e-09
-1.84755e-06
4.87926e-09
-1.83478e-06
2.7691e-09
-1.82211e-06
3.77715e-09
-1.80975e-06
7.72583e-09
-1.79791e-06
1.30521e-08
-1.78645e-06
1.77742e-08
-1.77524e-06
2.00314e-08
-1.76406e-06
1.90146e-08
-1.75272e-06
1.52656e-08
-1.74102e-06
1.03832e-08
-1.72891e-06
6.31938e-09
-1.71664e-06
4.55213e-09
-1.70453e-06
5.85778e-09
-1.69288e-06
9.75083e-09
-1.6819e-06
1.48276e-08
-1.67149e-06
1.9546e-08
-1.66146e-06
2.2377e-08
-1.65161e-06
2.26784e-08
-1.64176e-06
2.06898e-08
-1.6318e-06
1.73372e-08
-1.62171e-06
1.39357e-08
-1.61152e-06
1.18179e-08
-1.60135e-06
1.17674e-08
-1.59166e-06
1.37215e-08
-1.58277e-06
1.73367e-08
-1.57468e-06
2.20218e-08
-1.56732e-06
2.66797e-08
-1.56056e-06
3.02726e-08
-1.55421e-06
3.22447e-08
-1.54808e-06
3.2448e-08
-1.542e-06
3.11777e-08
-1.53588e-06
2.90304e-08
-1.52976e-06
2.67498e-08
-1.52372e-06
2.50906e-08
-1.51785e-06
2.46279e-08
-1.51241e-06
2.55576e-08
-1.50776e-06
2.77705e-08
-1.50403e-06
3.13309e-08
-1.50129e-06
3.58577e-08
-1.4996e-06
4.07813e-08
-1.49893e-06
4.55662e-08
-1.4992e-06
4.98019e-08
-1.50027e-06
5.3215e-08
-1.50198e-06
5.56357e-08
-1.50416e-06
5.69978e-08
-1.50665e-06
5.737e-08
-1.50936e-06
5.69364e-08
-1.5122e-06
5.59752e-08
-1.51512e-06
5.48281e-08
-1.51808e-06
5.38143e-08
-1.52111e-06
5.30777e-08
-1.52442e-06
5.25888e-08
-1.52818e-06
5.25368e-08
-1.53252e-06
5.31092e-08
-1.53763e-06
5.44877e-08
-1.54382e-06
5.68993e-08
-1.55145e-06
6.0342e-08
-1.56049e-06
6.41213e-08
-1.57096e-06
6.81839e-08
-1.58297e-06
7.26889e-08
-1.5967e-06
7.76724e-08
-1.61227e-06
8.30197e-08
-1.6297e-06
8.85039e-08
-1.64893e-06
9.41038e-08
-1.67029e-06
1.00466e-07
-1.69411e-06
1.0763e-07
-1.72061e-06
1.15395e-07
-1.74995e-06
1.23667e-07
-1.78233e-06
1.32465e-07
-1.81795e-06
1.41863e-07
-1.85703e-06
1.51942e-07
-1.89982e-06
1.62778e-07
-1.94662e-06
1.74456e-07
-1.99771e-06
1.87072e-07
-2.05345e-06
2.007e-07
-2.11419e-06
2.153e-07
-2.18028e-06
2.3071e-07
-2.2521e-06
2.47048e-07
-2.33021e-06
2.65143e-07
-2.41517e-06
2.84821e-07
-2.50746e-06
3.06125e-07
-2.60769e-06
3.29773e-07
-2.71661e-06
3.55853e-07
-2.83496e-06
3.84271e-07
-2.96349e-06
4.15048e-07
-3.10295e-06
4.48279e-07
-3.25408e-06
4.84133e-07
-3.41745e-06
5.22809e-07
-3.59353e-06
5.64364e-07
-3.78252e-06
6.08505e-07
-3.98422e-06
6.54738e-07
-4.19798e-06
7.02641e-07
-4.42292e-06
7.51971e-07
-4.65755e-06
8.01579e-07
-4.89964e-06
8.50259e-07
-5.14682e-06
8.9738e-07
-5.3969e-06
9.42257e-07
-5.64856e-06
9.8621e-07
-5.90123e-06
1.03586e-06
-6.15605e-06
1.11105e-06
-6.41513e-06
1.24929e-06
-6.67955e-06
1.5017e-06
-6.94575e-06
1.90571e-06
-7.21405e-06
2.45509e-06
-7.50522e-06
3.07101e-06
-7.87154e-06
3.57819e-06
-8.37501e-06
3.67996e-06
-9.00827e-06
2.89833e-06
-9.56287e-06
3.96905e-07
-8.83247e-06
-5.14607e-06
-5.48813e-06
-1.45022e-05
-2.36524e-05
-5.05024e-06
2.75488e-05
-7.91795e-06
8.87277e-06
-8.92101e-06
-8.02333e-07
-9.06306e-06
-3.49708e-06
-8.86787e-06
-3.79829e-06
-8.55066e-06
-3.47279e-06
-8.19971e-06
-3.04697e-06
-7.85177e-06
-2.64767e-06
-7.52068e-06
-2.29277e-06
-7.20922e-06
-1.97537e-06
-6.9152e-06
-1.68639e-06
-6.63505e-06
-1.4204e-06
-6.36613e-06
-1.17612e-06
-6.10783e-06
-9.55114e-07
-5.86172e-06
-7.60055e-07
-5.63066e-06
-5.92917e-07
-5.41749e-06
-4.538e-07
-5.22449e-06
-3.41047e-07
-5.05138e-06
-2.5161e-07
-4.89725e-06
-1.82216e-07
-4.76092e-06
-1.29172e-07
-4.64096e-06
-8.89912e-08
-4.5354e-06
-5.90529e-08
-4.4419e-06
-3.71134e-08
-4.35833e-06
-2.13246e-08
-4.28294e-06
-1.02326e-08
-4.21438e-06
-2.63908e-09
-4.15124e-06
1.94968e-09
-4.09272e-06
4.89528e-09
-4.03801e-06
6.6804e-09
-3.98635e-06
7.65216e-09
-3.93732e-06
7.86383e-09
-3.89058e-06
7.28567e-09
-3.84595e-06
5.92423e-09
-3.80316e-06
4.0688e-09
-3.76194e-06
1.9811e-09
-3.7222e-06
-4.0415e-11
-3.68369e-06
-2.06766e-09
-3.64633e-06
-3.87713e-09
-3.61008e-06
-5.48717e-09
-3.5748e-06
-7.19844e-09
-3.54026e-06
-9.18309e-09
-3.5063e-06
-1.12899e-08
-3.4729e-06
-1.34929e-08
-3.44013e-06
-1.57376e-08
-3.4079e-06
-1.78041e-08
-3.376e-06
-1.9536e-08
-3.34433e-06
-2.10875e-08
-3.31303e-06
-2.27445e-08
-3.28228e-06
-2.44704e-08
-3.25197e-06
-2.58458e-08
-3.22179e-06
-2.65546e-08
-3.19158e-06
-2.6786e-08
-3.16155e-06
-2.69911e-08
-3.132e-06
-2.72494e-08
-3.10296e-06
-2.70716e-08
-3.07404e-06
-2.59527e-08
-3.0449e-06
-2.40409e-08
-3.01556e-06
-2.21264e-08
-2.98635e-06
-2.0893e-08
-2.95745e-06
-2.0152e-08
-2.92869e-06
-1.88822e-08
-2.89975e-06
-1.63808e-08
-2.87041e-06
-1.34119e-08
-2.84099e-06
-1.12361e-08
-2.81203e-06
-1.05148e-08
-2.78374e-06
-1.08235e-08
-2.7559e-06
-1.12476e-08
-2.72807e-06
-1.12288e-08
-2.69993e-06
-1.09898e-08
-2.67159e-06
-1.14132e-08
-2.64349e-06
-1.3208e-08
-2.61602e-06
-1.61787e-08
-2.58935e-06
-1.93142e-08
-2.56311e-06
-2.12199e-08
-2.53658e-06
-2.10719e-08
-2.50923e-06
-1.92267e-08
-2.48109e-06
-1.69357e-08
-2.45264e-06
-1.54167e-08
-2.42435e-06
-1.50493e-08
-2.39646e-06
-1.53833e-08
-2.36883e-06
-1.55682e-08
-2.34107e-06
-1.5023e-08
-2.31284e-06
-1.3926e-08
-2.28414e-06
-1.31361e-08
-2.25535e-06
-1.36156e-08
-2.22699e-06
-1.57618e-08
-2.19942e-06
-1.90417e-08
-2.17264e-06
-2.2205e-08
-2.14631e-06
-2.38599e-08
-2.11979e-06
-2.30518e-08
-2.09245e-06
-1.99108e-08
-2.06408e-06
-1.56254e-08
-2.03481e-06
-1.18012e-08
-2.00519e-06
-9.8897e-09
-1.97592e-06
-1.05536e-08
-1.94756e-06
-1.34013e-08
-1.92028e-06
-1.7202e-08
-1.89385e-06
-2.04085e-08
-1.86785e-06
-2.17561e-08
-1.84168e-06
-2.0615e-08
-1.81489e-06
-1.73355e-08
-1.78735e-06
-1.30184e-08
-1.75913e-06
-8.97433e-09
-1.73064e-06
-6.41434e-09
-1.70239e-06
-5.87811e-09
-1.67481e-06
-7.19657e-09
-1.64816e-06
-9.61665e-09
-1.62245e-06
-1.20749e-08
-1.59742e-06
-1.35141e-08
-1.57269e-06
-1.3267e-08
-1.54802e-06
-1.12502e-08
-1.52323e-06
-7.75731e-09
-1.49815e-06
-3.36346e-09
-1.47285e-06
1.07795e-09
-1.44726e-06
4.38541e-09
-1.42173e-06
6.40991e-09
-1.39654e-06
6.94753e-09
-1.37193e-06
6.2641e-09
-1.34808e-06
4.88255e-09
-1.32507e-06
3.43451e-09
-1.30282e-06
2.54049e-09
-1.28116e-06
2.66708e-09
-1.25994e-06
4.02918e-09
-1.23909e-06
6.61403e-09
-1.21841e-06
1.03564e-08
-1.19779e-06
1.49292e-08
-1.17718e-06
1.98629e-08
-1.15661e-06
2.46943e-08
-1.13615e-06
2.90401e-08
-1.11591e-06
3.26746e-08
-1.09603e-06
3.545e-08
-1.07661e-06
3.72701e-08
-1.05775e-06
3.82092e-08
-1.03956e-06
3.84431e-08
-1.02211e-06
3.82202e-08
-1.00541e-06
3.78274e-08
-9.89435e-07
3.7534e-08
-9.74166e-07
3.75054e-08
-9.59691e-07
3.78103e-08
-9.46052e-07
3.85954e-08
-9.33256e-07
4.00093e-08
-9.21333e-07
4.22619e-08
-9.10425e-07
4.56891e-08
-9.00751e-07
5.03644e-08
-8.92186e-07
5.52517e-08
-8.84636e-07
6.03306e-08
-8.78158e-07
6.59074e-08
-8.72872e-07
7.20821e-08
-8.68868e-07
7.87112e-08
-8.66116e-07
8.54472e-08
-8.64496e-07
9.21798e-08
-8.64263e-07
9.99291e-08
-8.65687e-07
1.0875e-07
-8.68928e-07
1.18332e-07
-8.74103e-07
1.28538e-07
-8.81326e-07
1.39384e-07
-8.90721e-07
1.50953e-07
-9.02429e-07
1.63345e-07
-9.16594e-07
1.76637e-07
-9.33383e-07
1.90941e-07
-9.52962e-07
2.06345e-07
-9.75515e-07
2.22947e-07
-1.00128e-06
2.40763e-07
-1.03061e-06
2.5973e-07
-1.06386e-06
2.79986e-07
-1.10118e-06
3.02159e-07
-1.14278e-06
3.26113e-07
-1.1888e-06
3.51839e-07
-1.23955e-06
3.80213e-07
-1.29546e-06
4.1145e-07
-1.35692e-06
4.45422e-07
-1.42428e-06
4.821e-07
-1.49787e-06
5.21555e-07
-1.57793e-06
5.63881e-07
-1.66457e-06
6.09138e-07
-1.75774e-06
6.57216e-07
-1.85725e-06
7.07706e-07
-1.96264e-06
7.59811e-07
-2.0732e-06
8.12888e-07
-2.18799e-06
8.66445e-07
-2.306e-06
9.19269e-07
-2.42606e-06
9.70001e-07
-2.5473e-06
1.01831e-06
-2.67005e-06
1.06469e-06
-2.79628e-06
1.11211e-06
-2.93042e-06
1.16967e-06
-3.07543e-06
1.25568e-06
-3.22917e-06
1.40259e-06
-3.37355e-06
1.64547e-06
-3.47258e-06
2.00374e-06
-3.48234e-06
2.46303e-06
-3.3786e-06
2.96391e-06
-3.19702e-06
3.39088e-06
-3.06899e-06
3.54343e-06
-3.25462e-06
3.07307e-06
-4.0073e-06
1.13674e-06
-4.6378e-06
-4.53031e-06
-3.26271e-06
-1.58893e-05
-2.69208e-05
-4.41953e-06
3.19672e-05
-7.17944e-06
1.16322e-05
-8.35895e-06
3.77137e-07
-8.71188e-06
-3.14425e-06
-8.72988e-06
-3.7805e-06
-8.61017e-06
-3.59277e-06
-8.43423e-06
-3.22319e-06
-8.23773e-06
-2.84447e-06
-8.03594e-06
-2.49486e-06
-7.83408e-06
-2.17751e-06
-7.6325e-06
-1.88827e-06
-7.42977e-06
-1.62343e-06
-7.22474e-06
-1.38146e-06
-7.01753e-06
-1.16263e-06
-6.80985e-06
-9.68026e-07
-6.60465e-06
-7.9842e-07
-6.40524e-06
-6.53518e-07
-6.2146e-06
-5.31983e-07
-6.03476e-06
-4.31752e-07
-5.86694e-06
-3.5034e-07
-5.71145e-06
-2.84961e-07
-5.56784e-06
-2.32907e-07
-5.43538e-06
-1.91815e-07
-5.3132e-06
-1.59599e-07
-5.20035e-06
-1.34481e-07
-5.09588e-06
-1.14997e-07
-4.99887e-06
-9.99579e-08
-4.90876e-06
-8.84619e-08
-4.8246e-06
-7.95716e-08
-4.74558e-06
-7.26435e-08
-4.67099e-06
-6.72373e-08
-4.60031e-06
-6.31218e-08
-4.53315e-06
-6.01714e-08
-4.46927e-06
-5.82581e-08
-4.40837e-06
-5.71348e-08
-4.35014e-06
-5.6554e-08
-4.2942e-06
-5.62842e-08
-4.2404e-06
-5.61677e-08
-4.18855e-06
-5.60309e-08
-4.13843e-06
-5.59055e-08
-4.08987e-06
-5.60594e-08
-4.0427e-06
-5.66583e-08
-3.99678e-06
-5.7517e-08
-3.95206e-06
-5.8521e-08
-3.90851e-06
-5.9587e-08
-3.86604e-06
-6.05768e-08
-3.82447e-06
-6.14117e-08
-3.78369e-06
-6.2175e-08
-3.74375e-06
-6.29936e-08
-3.7047e-06
-6.38176e-08
-3.66644e-06
-6.44091e-08
-3.6287e-06
-6.45999e-08
-3.59131e-06
-6.44809e-08
-3.55435e-06
-6.42564e-08
-3.51797e-06
-6.39338e-08
-3.4821e-06
-6.32477e-08
-3.4464e-06
-6.196e-08
-3.41054e-06
-6.02075e-08
-3.37449e-06
-5.8476e-08
-3.33851e-06
-5.71797e-08
-3.30277e-06
-5.61988e-08
-3.26709e-06
-5.48588e-08
-3.23108e-06
-5.27024e-08
-3.19449e-06
-5.03047e-08
-3.15756e-06
-4.84662e-08
-3.12081e-06
-4.75692e-08
-3.08455e-06
-4.73862e-08
-3.04869e-06
-4.74076e-08
-3.0129e-06
-4.73234e-08
-2.9769e-06
-4.7286e-08
-2.94083e-06
-4.77893e-08
-2.90515e-06
-4.91878e-08
-2.87034e-06
-5.12973e-08
-2.83653e-06
-5.34275e-08
-2.80333e-06
-5.47153e-08
-2.77002e-06
-5.46856e-08
-2.73597e-06
-5.35767e-08
-2.70107e-06
-5.21445e-08
-2.66566e-06
-5.11287e-08
-2.63022e-06
-5.07878e-08
-2.59504e-06
-5.08659e-08
-2.56004e-06
-5.08756e-08
-2.52486e-06
-5.05032e-08
-2.4892e-06
-4.98881e-08
-2.45308e-06
-4.95591e-08
-2.41691e-06
-5.00859e-08
-2.38131e-06
-5.16722e-08
-2.34671e-06
-5.39392e-08
-2.31316e-06
-5.60558e-08
-2.28023e-06
-5.70988e-08
-2.24711e-06
-5.64738e-08
-2.21302e-06
-5.42972e-08
-2.17759e-06
-5.13621e-08
-2.14095e-06
-4.87462e-08
-2.10374e-06
-4.73979e-08
-2.06685e-06
-4.77465e-08
-2.03102e-06
-4.95393e-08
-1.99655e-06
-5.19705e-08
-1.96326e-06
-5.40002e-08
-1.93057e-06
-5.47471e-08
-1.89771e-06
-5.37824e-08
-1.86401e-06
-5.13323e-08
-1.8292e-06
-4.8132e-08
-1.79339e-06
-4.50922e-08
-1.75708e-06
-4.30253e-08
-1.72096e-06
-4.23028e-08
-1.68564e-06
-4.28202e-08
-1.65148e-06
-4.40789e-08
-1.6185e-06
-4.53535e-08
-1.5864e-06
-4.59129e-08
-1.5547e-06
-4.52748e-08
-1.52292e-06
-4.33295e-08
-1.4907e-06
-4.02829e-08
-1.45778e-06
-3.65895e-08
-1.4241e-06
-3.28984e-08
-1.39019e-06
-2.98292e-08
-1.35629e-06
-2.77907e-08
-1.32277e-06
-2.68841e-08
-1.28994e-06
-2.68628e-08
-1.25804e-06
-2.73202e-08
-1.22712e-06
-2.77874e-08
-1.19708e-06
-2.78073e-08
-1.16768e-06
-2.70383e-08
-1.13865e-06
-2.52994e-08
-1.10977e-06
-2.25665e-08
-1.0808e-06
-1.89227e-08
-1.05155e-06
-1.462e-08
-1.02198e-06
-1.00092e-08
-9.9214e-07
-5.45237e-09
-9.6208e-07
-1.32303e-09
-9.32008e-07
2.29924e-09
-9.02277e-07
5.41529e-09
-8.73035e-07
7.72372e-09
-8.44467e-07
9.33751e-09
-8.16735e-07
1.04079e-08
-7.89951e-07
1.1133e-08
-7.64165e-07
1.1738e-08
-7.39365e-07
1.24305e-08
-7.15532e-07
1.33681e-08
-6.92675e-07
1.46503e-08
-6.7078e-07
1.63966e-08
-6.4981e-07
1.87361e-08
-6.29736e-07
2.18847e-08
-6.10504e-07
2.61537e-08
-5.92055e-07
3.16104e-08
-5.74369e-07
3.72598e-08
-5.57431e-07
4.30868e-08
-5.41278e-07
4.94486e-08
-5.2596e-07
5.64572e-08
-5.11514e-07
6.39595e-08
-4.97965e-07
7.15916e-08
-4.8533e-07
7.92401e-08
-4.73673e-07
8.79681e-08
-4.63077e-07
9.78486e-08
-4.53622e-07
1.08573e-07
-4.45388e-07
1.19999e-07
-4.38453e-07
1.32144e-07
-4.32893e-07
1.45088e-07
-4.28764e-07
1.58911e-07
-4.26154e-07
1.73722e-07
-4.25116e-07
1.89597e-07
-4.25741e-07
2.06664e-07
-4.28098e-07
2.24998e-07
-4.32309e-07
2.44667e-07
-4.38599e-07
2.65713e-07
-4.47208e-07
2.88287e-07
-4.58096e-07
3.12739e-07
-4.71198e-07
3.38907e-07
-4.86389e-07
3.66721e-07
-5.03778e-07
3.97292e-07
-5.23496e-07
4.30858e-07
-5.45661e-07
4.67276e-07
-5.70311e-07
5.06439e-07
-5.97423e-07
5.48355e-07
-6.26912e-07
5.93058e-07
-6.58608e-07
6.4052e-07
-6.92254e-07
6.90548e-07
-7.27671e-07
7.42807e-07
-7.64624e-07
7.96448e-07
-8.02675e-07
8.50622e-07
-8.41767e-07
9.0522e-07
-8.81954e-07
9.59138e-07
-9.23772e-07
1.0115e-06
-9.68495e-07
1.06271e-06
-1.0185e-06
1.11437e-06
-1.0777e-06
1.171e-06
-1.14976e-06
1.24141e-06
-1.2347e-06
1.34028e-06
-1.3214e-06
1.48895e-06
-1.38562e-06
1.7093e-06
-1.38735e-06
2.00499e-06
-1.28484e-06
2.35982e-06
-1.05518e-06
2.73309e-06
-7.24085e-07
3.05777e-06
-4.09976e-07
3.22604e-06
-3.32883e-07
2.9912e-06
-7.78139e-07
1.57516e-06
-1.74025e-06
-3.57935e-06
-1.63827e-06
-1.60026e-05
-2.85646e-05
-3.93498e-06
3.59011e-05
-6.56587e-06
1.42627e-05
-7.78665e-06
1.59794e-06
-8.23308e-06
-2.69789e-06
-8.35291e-06
-3.66087e-06
-8.33143e-06
-3.61451e-06
-8.24445e-06
-3.31046e-06
-8.12519e-06
-2.96401e-06
-7.98904e-06
-2.6313e-06
-7.84277e-06
-2.32408e-06
-7.68878e-06
-2.04255e-06
-7.52769e-06
-1.78482e-06
-7.35977e-06
-1.54967e-06
-7.18589e-06
-1.3368e-06
-7.00779e-06
-1.14642e-06
-6.82797e-06
-9.78543e-07
-6.6492e-06
-8.32579e-07
-6.47417e-06
-7.07314e-07
-6.30507e-06
-6.01146e-07
-6.1435e-06
-5.12212e-07
-5.99037e-06
-4.38388e-07
-5.84606e-06
-3.77519e-07
-5.71059e-06
-3.27589e-07
-5.58371e-06
-2.86776e-07
-5.465e-06
-2.53486e-07
-5.35394e-06
-2.26362e-07
-5.24993e-06
-2.04263e-07
-5.15245e-06
-1.86243e-07
-5.06085e-06
-1.7147e-07
-4.97451e-06
-1.59287e-07
-4.89284e-06
-1.49207e-07
-4.81536e-06
-1.40896e-07
-4.74172e-06
-1.34117e-07
-4.67162e-06
-1.28656e-07
-4.60478e-06
-1.2427e-07
-4.54092e-06
-1.2072e-07
-4.47972e-06
-1.17783e-07
-4.42093e-06
-1.15257e-07
-4.36427e-06
-1.1299e-07
-4.30948e-06
-1.10988e-07
-4.25643e-06
-1.09409e-07
-4.20505e-06
-1.08344e-07
-4.15522e-06
-1.07644e-07
-4.10684e-06
-1.07194e-07
-4.05983e-06
-1.06905e-07
-4.01403e-06
-1.06675e-07
-3.96929e-06
-1.06443e-07
-3.92553e-06
-1.06239e-07
-3.88272e-06
-1.06105e-07
-3.84084e-06
-1.05993e-07
-3.79979e-06
-1.05761e-07
-3.75938e-06
-1.05307e-07
-3.7195e-06
-1.04666e-07
-3.68013e-06
-1.03923e-07
-3.6413e-06
-1.03065e-07
-3.60289e-06
-1.01957e-07
-3.56465e-06
-1.00498e-07
-3.52637e-06
-9.87881e-08
-3.48804e-06
-9.71061e-08
-3.44984e-06
-9.5683e-08
-3.41189e-06
-9.44435e-08
-3.37405e-06
-9.29996e-08
-3.33594e-06
-9.11116e-08
-3.29739e-06
-8.91512e-08
-3.25857e-06
-8.75919e-08
-3.21979e-06
-8.66471e-08
-3.18128e-06
-8.6195e-08
-3.14302e-06
-8.59665e-08
-3.10483e-06
-8.58091e-08
-3.06659e-06
-8.58246e-08
-3.02841e-06
-8.62743e-08
-2.99059e-06
-8.73053e-08
-2.95344e-06
-8.87463e-08
-2.91702e-06
-9.01418e-08
-2.88106e-06
-9.0978e-08
-2.84505e-06
-9.09974e-08
-2.80856e-06
-9.03596e-08
-2.7715e-06
-8.95079e-08
-2.73405e-06
-8.88754e-08
-2.69652e-06
-8.86231e-08
-2.65907e-06
-8.86098e-08
-2.62168e-06
-8.85702e-08
-2.58413e-06
-8.83506e-08
-2.54626e-06
-8.80581e-08
-2.50811e-06
-8.80061e-08
-2.46998e-06
-8.8512e-08
-2.4323e-06
-8.96594e-08
-2.39535e-06
-9.118e-08
-2.35917e-06
-9.25403e-08
-2.3234e-06
-9.31624e-08
-2.28748e-06
-9.2698e-08
-2.25083e-06
-9.12432e-08
-2.21319e-06
-8.93024e-08
-2.17468e-06
-8.75618e-08
-2.13575e-06
-8.66219e-08
-2.09704e-06
-8.67522e-08
-2.0591e-06
-8.77858e-08
-2.02216e-06
-8.92064e-08
-1.98611e-06
-9.03468e-08
-1.95053e-06
-9.06337e-08
-1.91482e-06
-8.97893e-08
-1.8785e-06
-8.79506e-08
-1.84135e-06
-8.55822e-08
-1.80346e-06
-8.32767e-08
-1.76523e-06
-8.15617e-08
-1.72714e-06
-8.06912e-08
-1.68965e-06
-8.06066e-08
-1.65304e-06
-8.09848e-08
-1.61735e-06
-8.13465e-08
-1.58236e-06
-8.12054e-08
-1.5477e-06
-8.02315e-08
-1.513e-06
-7.83254e-08
-1.47797e-06
-7.5617e-08
-1.44244e-06
-7.24189e-08
-1.40646e-06
-6.91759e-08
-1.37023e-06
-6.63597e-08
-1.334e-06
-6.43166e-08
-1.29809e-06
-6.30992e-08
-1.26277e-06
-6.24812e-08
-1.22823e-06
-6.21542e-08
-1.19453e-06
-6.17904e-08
-1.16156e-06
-6.10769e-08
-1.12914e-06
-5.97569e-08
-1.09705e-06
-5.76898e-08
-1.06506e-06
-5.48538e-08
-1.03296e-06
-5.1326e-08
-1.00059e-06
-4.72915e-08
-9.67896e-07
-4.30002e-08
-9.3495e-07
-3.86977e-08
-9.01953e-07
-3.46202e-08
-8.6908e-07
-3.08731e-08
-8.36389e-07
-2.75764e-08
-8.04153e-07
-2.48115e-08
-7.72585e-07
-2.25309e-08
-7.41848e-07
-2.0629e-08
-7.12055e-07
-1.89602e-08
-6.8326e-07
-1.73574e-08
-6.55467e-07
-1.56623e-08
-6.28659e-07
-1.37397e-08
-6.02825e-07
-1.14839e-08
-5.77938e-07
-8.79029e-09
-5.53964e-07
-5.53755e-09
-5.30923e-07
-1.45651e-09
-5.08676e-07
3.6071e-09
-4.86727e-07
9.36121e-09
-4.65296e-07
1.55284e-08
-4.44472e-07
2.1962e-08
-4.24343e-07
2.90191e-08
-4.04918e-07
3.67315e-08
-3.86186e-07
4.49266e-08
-3.68219e-07
5.33243e-08
-3.51227e-07
6.19467e-08
-3.35101e-07
7.15425e-08
-3.19746e-07
8.21925e-08
-3.05169e-07
9.3695e-08
-2.91435e-07
1.05964e-07
-2.78602e-07
1.1901e-07
-2.66718e-07
1.32902e-07
-2.55821e-07
1.47713e-07
-2.45931e-07
1.6353e-07
-2.37077e-07
1.80441e-07
-2.2929e-07
1.98575e-07
-2.22568e-07
2.17974e-07
-2.16956e-07
2.38752e-07
-2.12547e-07
2.61001e-07
-2.09418e-07
2.84855e-07
-2.07477e-07
3.10495e-07
-2.06635e-07
3.37762e-07
-2.06792e-07
3.66575e-07
-2.07868e-07
3.98065e-07
-2.09712e-07
4.32399e-07