/*--------------------------------*- C++ -*----------------------------------*\
  =========                 |
  \\      /  F ield         | OpenFOAM: The Open Source CFD Toolbox
   \\    /   O peration     | Website:  https://openfoam.org
    \\  /    A nd           | Version:  11
     \\/     M anipulation  |
\*---------------------------------------------------------------------------*/
FoamFile
{
    format      ascii;
    class       volScalarField;
    location    "3";
    object      T;
}
// * * * * * * * * * * * * * * * * * * * * * * * * * * * * * * * * * * * * * //

dimensions      [0 0 0 1 0 0 0];

internalField   nonuniform List<scalar> 
40000
(
298.586
294.438
293.548
293.335
293.278
293.261
293.255
293.253
293.252
293.252
293.252
293.251
293.251
293.251
293.251
293.251
293.251
293.25
293.25
293.25
293.25
293.25
293.25
293.25
293.25
293.25
293.25
293.25
293.25
293.25
293.25
293.249
293.248
293.246
293.243
293.238
293.23
293.219
293.202
293.181
293.154
293.121
293.08
293.032
292.977
292.916
292.851
292.783
292.714
292.645
292.578
292.513
292.451
292.391
292.335
292.282
292.232
292.185
292.14
292.099
292.06
292.023
291.989
291.957
291.926
291.897
291.869
291.842
291.815
291.789
291.764
291.739
291.714
291.689
291.663
291.637
291.611
291.584
291.555
291.526
291.495
291.464
291.431
291.398
291.363
291.328
291.292
291.256
291.22
291.184
291.149
291.113
291.078
291.044
291.011
290.979
290.948
290.918
290.89
290.863
290.838
290.814
290.792
290.772
290.753
290.736
290.721
290.707
290.694
290.683
290.673
290.663
290.655
290.646
290.638
290.63
290.622
290.614
290.606
290.599
290.591
290.583
290.575
290.568
290.561
290.554
290.548
290.542
290.537
290.533
290.529
290.526
290.523
290.521
290.519
290.517
290.515
290.513
290.511
290.508
290.505
290.503
290.499
290.496
290.492
290.488
290.484
290.48
290.477
290.473
290.47
290.467
290.465
290.463
290.462
290.461
290.461
290.46
290.46
290.459
290.458
290.456
290.454
290.451
290.448
290.444
290.44
290.435
290.43
290.424
290.418
290.412
290.405
290.398
290.391
290.383
290.374
290.366
290.357
290.347
290.337
290.327
290.316
290.305
290.293
290.281
290.268
290.254
290.239
290.223
290.2
290.169
290.127
290.071
289.995
289.893
289.755
289.56
289.23
288.72
298.865
294.453
293.525
293.321
293.272
293.259
293.255
293.253
293.253
293.252
293.252
293.252
293.251
293.251
293.251
293.251
293.251
293.251
293.251
293.251
293.25
293.25
293.25
293.25
293.25
293.25
293.25
293.25
293.25
293.249
293.247
293.244
293.239
293.229
293.213
293.19
293.156
293.112
293.057
292.99
292.914
292.829
292.734
292.633
292.529
292.428
292.333
292.245
292.166
292.095
292.032
291.975
291.926
291.882
291.842
291.807
291.776
291.748
291.723
291.701
291.681
291.664
291.649
291.636
291.624
291.613
291.603
291.592
291.582
291.57
291.558
291.544
291.527
291.509
291.487
291.463
291.436
291.406
291.374
291.34
291.304
291.267
291.23
291.193
291.157
291.121
291.086
291.053
291.021
290.991
290.963
290.936
290.911
290.887
290.865
290.844
290.826
290.808
290.793
290.779
290.766
290.755
290.745
290.736
290.728
290.721
290.714
290.708
290.701
290.694
290.686
290.679
290.67
290.661
290.652
290.642
290.632
290.621
290.611
290.602
290.593
290.586
290.58
290.575
290.571
290.568
290.567
290.566
290.566
290.567
290.568
290.569
290.571
290.572
290.573
290.574
290.575
290.575
290.574
290.574
290.573
290.572
290.571
290.57
290.569
290.568
290.568
290.569
290.57
290.572
290.576
290.58
290.585
290.591
290.597
290.604
290.612
290.619
290.627
290.634
290.64
290.645
290.65
290.653
290.656
290.658
290.659
290.659
290.66
290.66
290.66
290.66
290.661
290.661
290.663
290.664
290.666
290.669
290.672
290.675
290.679
290.684
290.688
290.693
290.698
290.703
290.707
290.71
290.705
290.691
290.666
290.627
290.57
290.487
290.371
290.211
289.991
289.69
289.278
288.627
299.182
294.559
293.543
293.321
293.271
293.258
293.255
293.254
293.253
293.253
293.252
293.252
293.252
293.252
293.252
293.251
293.251
293.251
293.251
293.251
293.251
293.251
293.251
293.251
293.251
293.25
293.25
293.249
293.248
293.245
293.239
293.227
293.208
293.177
293.132
293.069
292.988
292.889
292.773
292.644
292.506
292.363
292.218
292.081
291.957
291.847
291.754
291.675
291.609
291.554
291.509
291.472
291.441
291.415
291.393
291.376
291.361
291.35
291.341
291.334
291.33
291.328
291.328
291.329
291.331
291.335
291.34
291.345
291.348
291.349
291.347
291.339
291.327
291.31
291.288
291.262
291.232
291.199
291.165
291.131
291.097
291.065
291.034
291.005
290.979
290.955
290.933
290.913
290.895
290.88
290.866
290.853
290.842
290.833
290.825
290.818
290.812
290.807
290.803
290.8
290.797
290.794
290.791
290.788
290.783
290.779
290.773
290.766
290.758
290.749
290.738
290.727
290.715
290.702
290.689
290.675
290.663
290.652
290.643
290.637
290.632
290.63
290.629
290.63
290.633
290.638
290.644
290.651
290.659
290.668
290.677
290.686
290.696
290.705
290.713
290.721
290.727
290.733
290.737
290.741
290.744
290.746
290.748
290.751
290.753
290.757
290.761
290.767
290.774
290.783
290.794
290.807
290.821
290.838
290.857
290.876
290.897
290.918
290.94
290.96
290.98
290.998
291.014
291.028
291.039
291.049
291.057
291.063
291.069
291.075
291.08
291.086
291.093
291.101
291.109
291.119
291.13
291.142
291.155
291.168
291.183
291.198
291.213
291.228
291.242
291.255
291.262
291.26
291.25
291.231
291.198
291.146
291.071
290.962
290.81
290.599
290.31
289.919
289.392
288.656
299.471
294.681
293.575
293.329
293.272
293.259
293.256
293.254
293.254
293.253
293.253
293.253
293.253
293.252
293.252
293.252
293.252
293.252
293.252
293.252
293.252
293.251
293.251
293.251
293.251
293.251
293.25
293.248
293.244
293.235
293.22
293.194
293.153
293.091
293.006
292.897
292.765
292.612
292.444
292.269
292.092
291.922
291.767
291.634
291.523
291.434
291.362
291.306
291.262
291.228
291.201
291.18
291.164
291.152
291.142
291.136
291.131
291.129
291.128
291.13
291.133
291.138
291.145
291.153
291.163
291.174
291.185
291.193
291.199
291.2
291.197
291.188
291.175
291.157
291.135
291.112
291.087
291.062
291.038
291.015
290.995
290.977
290.961
290.948
290.937
290.928
290.921
290.915
290.911
290.908
290.906
290.904
290.903
290.903
290.903
290.903
290.903
290.903
290.903
290.902
290.901
290.898
290.895
290.89
290.884
290.876
290.867
290.857
290.846
290.833
290.819
290.805
290.79
290.775
290.762
290.749
290.739
290.732
290.727
290.725
290.725
290.727
290.733
290.741
290.751
290.764
290.779
290.796
290.814
290.833
290.852
290.871
290.89
290.908
290.925
290.94
290.953
290.965
290.974
290.982
290.988
290.994
290.999
291.004
291.01
291.017
291.026
291.037
291.05
291.067
291.086
291.109
291.135
291.164
291.196
291.23
291.266
291.303
291.34
291.376
291.409
291.44
291.466
291.488
291.506
291.521
291.532
291.54
291.546
291.552
291.558
291.565
291.574
291.583
291.594
291.607
291.621
291.636
291.652
291.669
291.687
291.705
291.722
291.737
291.751
291.759
291.76
291.756
291.743
291.72
291.681
291.621
291.534
291.409
291.233
290.988
290.651
290.197
289.59
288.784
299.73
294.802
293.615
293.339
293.275
293.26
293.257
293.255
293.255
293.254
293.254
293.254
293.254
293.253
293.253
293.253
293.253
293.253
293.253
293.252
293.252
293.252
293.252
293.252
293.251
293.25
293.248
293.244
293.236
293.22
293.193
293.148
293.081
292.986
292.863
292.713
292.538
292.347
292.148
291.952
291.767
291.603
291.467
291.358
291.274
291.211
291.164
291.13
291.104
291.086
291.073
291.063
291.056
291.051
291.047
291.046
291.046
291.047
291.05
291.054
291.06
291.067
291.076
291.085
291.095
291.103
291.11
291.115
291.117
291.115
291.11
291.102
291.091
291.079
291.066
291.053
291.041
291.03
291.021
291.014
291.009
291.006
291.005
291.005
291.007
291.009
291.013
291.016
291.02
291.024
291.028
291.032
291.035
291.038
291.04
291.041
291.042
291.042
291.041
291.039
291.036
291.031
291.025
291.018
291.009
290.999
290.988
290.976
290.962
290.948
290.933
290.919
290.904
290.891
290.879
290.87
290.863
290.858
290.856
290.857
290.862
290.87
290.881
290.897
290.915
290.937
290.961
290.988
291.015
291.044
291.073
291.102
291.13
291.155
291.179
291.2
291.217
291.232
291.244
291.254
291.262
291.269
291.276
291.284
291.292
291.303
291.316
291.332
291.351
291.375
291.403
291.435
291.472
291.513
291.558
291.607
291.658
291.71
291.762
291.812
291.86
291.903
291.941
291.972
291.993
292.004
292.009
292.01
292.009
292.008
292.008
292.009
292.013
292.02
292.03
292.041
292.054
292.068
292.084
292.1
292.117
292.133
292.149
292.162
292.171
292.176
292.176
292.172
292.158
292.134
292.094
292.033
291.941
291.808
291.619
291.353
290.984
290.478
289.799
288.892
299.963
294.916
293.652
293.349
293.279
293.262
293.258
293.257
293.256
293.256
293.255
293.255
293.255
293.254
293.254
293.254
293.254
293.254
293.253
293.253
293.253
293.253
293.253
293.252
293.251
293.25
293.246
293.239
293.226
293.202
293.161
293.097
293.005
292.881
292.726
292.544
292.341
292.129
291.919
291.723
291.551
291.409
291.299
291.218
291.16
291.12
291.093
291.074
291.062
291.054
291.048
291.044
291.042
291.041
291.04
291.04
291.042
291.044
291.047
291.052
291.057
291.063
291.07
291.076
291.081
291.086
291.09
291.093
291.094
291.094
291.093
291.091
291.088
291.086
291.085
291.085
291.086
291.09
291.095
291.101
291.109
291.118
291.127
291.137
291.147
291.156
291.165
291.174
291.181
291.188
291.193
291.197
291.201
291.203
291.204
291.203
291.202
291.2
291.196
291.192
291.186
291.179
291.171
291.163
291.153
291.142
291.13
291.117
291.104
291.09
291.077
291.063
291.051
291.039
291.03
291.024
291.019
291.016
291.017
291.022
291.031
291.045
291.063
291.086
291.112
291.143
291.176
291.211
291.249
291.287
291.324
291.361
291.395
291.426
291.453
291.476
291.494
291.508
291.518
291.526
291.531
291.536
291.54
291.547
291.556
291.568
291.583
291.603
291.627
291.655
291.689
291.729
291.773
291.823
291.878
291.936
291.997
292.06
292.123
292.184
292.242
292.29
292.326
292.348
292.362
292.369
292.372
292.373
292.372
292.371
292.37
292.37
292.371
292.373
292.378
292.386
292.396
292.408
292.422
292.436
292.451
292.465
292.478
292.488
292.497
292.503
292.505
292.502
292.492
292.47
292.433
292.374
292.285
292.153
291.961
291.685
291.293
290.745
289.992
288.966
300.172
295.023
293.689
293.361
293.282
293.264
293.259
293.258
293.257
293.257
293.256
293.256
293.256
293.255
293.255
293.255
293.255
293.254
293.254
293.254
293.254
293.254
293.253
293.253
293.251
293.249
293.244
293.234
293.216
293.183
293.129
293.049
292.936
292.789
292.61
292.405
292.187
291.967
291.759
291.576
291.424
291.307
291.223
291.165
291.128
291.105
291.091
291.084
291.08
291.078
291.077
291.077
291.077
291.077
291.078
291.08
291.082
291.085
291.088
291.092
291.096
291.1
291.104
291.109
291.114
291.119
291.124
291.129
291.134
291.139
291.145
291.151
291.159
291.168
291.179
291.191
291.204
291.219
291.235
291.252
291.269
291.286
291.303
291.319
291.334
291.347
291.359
291.37
291.378
291.385
291.39
291.393
291.394
291.393
291.39
291.386
291.38
291.373
291.365
291.356
291.347
291.338
291.328
291.317
291.306
291.295
291.283
291.271
291.258
291.246
291.235
291.223
291.213
291.205
291.199
291.194
291.191
291.192
291.197
291.206
291.221
291.24
291.265
291.295
291.33
291.369
291.412
291.458
291.505
291.553
291.6
291.645
291.686
291.723
291.754
291.777
291.794
291.804
291.806
291.8
291.792
291.784
291.778
291.776
291.779
291.787
291.799
291.817
291.841
291.87
291.904
291.945
291.991
292.042
292.098
292.157
292.219
292.282
292.344
292.402
292.451
292.49
292.522
292.547
292.567
292.583
292.594
292.602
292.607
292.611
292.613
292.616
292.618
292.622
292.627
292.633
292.641
292.65
292.661
292.674
292.686
292.699
292.711
292.723
292.734
292.742
292.748
292.75
292.744
292.728
292.698
292.646
292.564
292.439
292.253
291.977
291.574
290.992
290.168
289.019
300.36
295.124
293.725
293.372
293.286
293.265
293.26
293.259
293.258
293.258
293.257
293.257
293.257
293.256
293.256
293.256
293.256
293.255
293.255
293.255
293.255
293.254
293.254
293.253
293.251
293.248
293.242
293.229
293.206
293.166
293.103
293.009
292.88
292.716
292.521
292.304
292.078
291.859
291.661
291.493
291.362
291.267
291.203
291.164
291.141
291.13
291.126
291.126
291.128
291.131
291.134
291.137
291.14
291.143
291.146
291.15
291.153
291.156
291.159
291.163
291.167
291.172
291.178
291.184
291.191
291.199
291.208
291.218
291.23
291.242
291.256
291.272
291.289
291.308
291.329
291.35
291.374
291.398
291.422
291.446
291.471
291.494
291.516
291.537
291.556
291.573
291.588
291.6
291.609
291.616
291.62
291.621
291.62
291.615
291.609
291.599
291.588
291.575
291.559
291.543
291.526
291.509
291.494
291.478
291.463
291.449
291.436
291.423
291.41
291.399
291.389
291.381
291.374
291.368
291.364
291.361
291.362
291.367
291.377
291.391
291.411
291.437
291.469
291.507
291.55
291.598
291.65
291.705
291.762
291.821
291.878
291.934
291.985
292.031
292.069
292.098
292.114
292.114
292.103
292.086
292.065
292.042
292.019
292.0
291.987
291.979
291.979
291.986
292.0
292.02
292.047
292.081
292.12
292.164
292.212
292.263
292.317
292.371
292.423
292.471
292.514
292.553
292.589
292.62
292.648
292.672
292.693
292.711
292.726
292.738
292.748
292.757
292.765
292.772
292.779
292.786
292.794
292.803
292.813
292.824
292.835
292.848
292.861
292.875
292.888
292.901
292.911
292.919
292.921
292.914
292.893
292.852
292.78
292.667
292.492
292.225
291.822
291.215
290.326
289.059
300.531
295.219
293.759
293.384
293.29
293.267
293.261
293.26
293.259
293.259
293.258
293.258
293.258
293.257
293.257
293.257
293.257
293.256
293.256
293.256
293.255
293.255
293.254
293.253
293.252
293.248
293.24
293.226
293.199
293.155
293.084
292.981
292.842
292.667
292.462
292.239
292.012
291.799
291.611
291.459
291.345
291.267
291.218
291.191
291.179
291.176
291.179
291.185
291.193
291.2
291.207
291.214
291.221
291.226
291.231
291.236
291.241
291.246
291.252
291.258
291.265
291.273
291.283
291.293
291.305
291.318
291.332
291.349
291.367
291.387
291.408
291.432
291.457
291.484
291.512
291.541
291.571
291.601
291.631
291.661
291.691
291.719
291.745
291.77
291.792
291.811
291.828
291.842
291.853
291.86
291.864
291.865
291.863
291.857
291.848
291.836
291.822
291.805
291.785
291.764
291.741
291.716
291.69
291.664
291.639
291.615
291.593
291.574
291.557
291.542
291.53
291.521
291.514
291.508
291.506
291.507
291.512
291.521
291.535
291.555
291.58
291.611
291.648
291.69
291.738
291.791
291.847
291.906
291.967
292.027
292.086
292.141
292.192
292.235
292.269
292.292
292.308
292.318
292.323
292.32
292.311
292.295
292.273
292.247
292.219
292.194
292.175
292.162
292.157
292.16
292.171
292.188
292.213
292.243
292.278
292.318
292.362
292.408
292.454
292.499
292.542
292.583
292.62
292.655
292.687
292.715
292.74
292.763
292.783
292.8
292.816
292.83
292.842
292.854
292.864
292.874
292.884
292.894
292.904
292.914
292.926
292.938
292.95
292.964
292.978
292.993
293.008
293.022
293.032
293.036
293.027
292.997
292.938
292.838
292.679
292.428
292.033
291.412
290.467
289.089
300.686
295.309
293.793
293.395
293.294
293.269
293.262
293.261
293.26
293.26
293.259
293.259
293.259
293.258
293.258
293.258
293.257
293.257
293.257
293.257
293.256
293.256
293.255
293.254
293.252
293.248
293.24
293.224
293.196
293.149
293.075
292.967
292.822
292.642
292.433
292.208
291.983
291.775
291.597
291.457
291.355
291.288
291.249
291.231
291.227
291.23
291.239
291.25
291.261
291.272
291.282
291.292
291.301
291.31
291.319
291.327
291.336
291.345
291.355
291.366
291.377
291.39
291.404
291.419
291.436
291.455
291.475
291.497
291.52
291.546
291.573
291.601
291.631
291.663
291.695
291.727
291.76
291.793
291.826
291.858
291.889
291.919
291.948
291.974
291.998
292.02
292.038
292.053
292.065
292.074
292.08
292.082
292.08
292.075
292.067
292.056
292.043
292.026
292.007
291.984
291.959
291.932
291.902
291.87
291.837
291.804
291.771
291.739
291.709
291.683
291.661
291.643
291.63
291.622
291.619
291.62
291.627
291.639
291.656
291.678
291.705
291.738
291.777
291.819
291.867
291.917
291.97
292.023
292.075
292.125
292.171
292.211
292.245
292.274
292.3
292.326
292.352
292.377
292.399
292.418
292.433
292.442
292.445
292.44
292.426
292.406
292.385
292.364
292.347
292.335
292.33
292.331
292.338
292.353
292.374
292.404
292.439
292.478
292.518
292.558
292.598
292.636
292.672
292.705
292.736
292.764
292.789
292.812
292.833
292.851
292.868
292.883
292.897
292.91
292.922
292.933
292.944
292.955
292.966
292.976
292.987
292.998
293.01
293.022
293.036
293.05
293.064
293.08
293.095
293.107
293.11
293.093
293.046
292.959
292.817
292.586
292.206
291.581
290.588
289.113
300.829
295.394
293.826
293.406
293.298
293.27
293.263
293.261
293.261
293.26
293.26
293.26
293.26
293.259
293.259
293.259
293.258
293.258
293.258
293.257
293.257
293.257
293.256
293.255
293.253
293.248
293.24
293.224
293.196
293.149
293.074
292.966
292.821
292.64
292.431
292.207
291.985
291.781
291.609
291.474
291.377
291.315
291.28
291.266
291.265
291.273
291.285
291.299
291.315
291.33
291.344
291.359
291.372
291.386
291.399
291.412
291.425
291.439
291.454
291.469
291.485
291.502
291.521
291.54
291.561
291.584
291.607
291.633
291.659
291.687
291.715
291.745
291.776
291.806
291.838
291.869
291.9
291.931
291.961
291.99
292.018
292.044
292.068
292.091
292.113
292.133
292.152
292.169
292.185
292.198
292.21
292.219
292.225
292.228
292.228
292.224
292.216
292.205
292.192
292.174
292.154
292.129
292.102
292.07
292.036
291.998
291.959
291.918
291.878
291.839
291.803
291.772
291.747
291.728
291.717
291.712
291.714
291.723
291.738
291.758
291.784
291.815
291.85
291.889
291.93
291.973
292.016
292.058
292.098
292.133
292.164
292.19
292.216
292.244
292.274
292.308
292.343
292.378
292.413
292.445
292.474
292.499
292.519
292.534
292.543
292.546
292.541
292.532
292.522
292.512
292.505
292.5
292.501
292.507
292.522
292.542
292.566
292.594
292.624
292.656
292.688
292.72
292.75
292.779
292.806
292.83
292.853
292.874
292.893
292.91
292.926
292.94
292.953
292.966
292.977
292.988
292.999
293.009
293.019
293.029
293.039
293.049
293.06
293.071
293.082
293.094
293.107
293.12
293.134
293.147
293.155
293.148
293.113
293.039
292.913
292.704
292.344
291.721
290.691
289.133
300.96
295.474
293.858
293.418
293.301
293.272
293.264
293.262
293.261
293.261
293.261
293.261
293.26
293.26
293.26
293.259
293.259
293.259
293.258
293.258
293.258
293.257
293.257
293.255
293.253
293.249
293.241
293.226
293.199
293.154
293.082
292.978
292.836
292.659
292.453
292.232
292.012
291.811
291.639
291.505
291.408
291.345
291.31
291.295
291.294
291.303
291.318
291.335
291.354
291.373
291.392
291.41
291.428
291.445
291.463
291.48
291.497
291.515
291.533
291.552
291.571
291.591
291.612
291.634
291.656
291.68
291.704
291.729
291.754
291.78
291.807
291.834
291.86
291.887
291.914
291.941
291.967
291.993
292.018
292.044
292.069
292.094
292.119
292.144
292.168
292.191
292.213
292.234
292.254
292.272
292.289
292.304
292.317
292.327
292.335
292.339
292.341
292.338
292.331
292.322
292.309
292.293
292.272
292.247
292.219
292.185
292.148
292.107
292.063
292.018
291.973
291.93
291.89
291.857
291.83
291.811
291.8
291.798
291.803
291.815
291.833
291.856
291.884
291.915
291.948
291.981
292.015
292.046
292.075
292.101
292.126
292.152
292.183
292.218
292.258
292.302
292.346
292.39
292.433
292.473
292.509
292.542
292.57
292.594
292.613
292.629
292.64
292.646
292.648
292.648
292.648
292.649
292.653
292.661
292.672
292.686
292.704
292.723
292.746
292.769
292.794
292.818
292.842
292.865
292.887
292.907
292.926
292.944
292.96
292.974
292.988
293.0
293.012
293.023
293.033
293.043
293.052
293.061
293.07
293.078
293.087
293.096
293.104
293.113
293.123
293.132
293.143
293.153
293.164
293.175
293.181
293.176
293.149
293.086
292.976
292.787
292.449
291.835
290.776
289.149
301.082
295.552
293.89
293.429
293.305
293.273
293.265
293.263
293.262
293.262
293.261
293.261
293.261
293.261
293.26
293.26
293.26
293.259
293.259
293.259
293.258
293.258
293.257
293.256
293.254
293.251
293.244
293.23
293.205
293.163
293.097
292.999
292.865
292.695
292.496
292.28
292.063
291.861
291.687
291.549
291.447
291.378
291.338
291.32
291.317
291.325
291.339
291.358
291.379
291.4
291.421
291.443
291.463
291.484
291.504
291.524
291.544
291.564
291.584
291.604
291.624
291.645
291.666
291.687
291.708
291.73
291.752
291.774
291.796
291.818
291.84
291.863
291.886
291.909
291.933
291.958
291.983
292.01
292.038
292.066
292.095
292.123
292.152
292.181
292.209
292.236
292.262
292.287
292.311
292.333
292.354
292.373
292.39
292.405
292.417
292.427
292.435
292.44
292.441
292.438
292.432
292.423
292.411
292.395
292.374
292.349
292.32
292.286
292.247
292.205
292.159
292.112
292.066
292.021
291.98
291.946
291.918
291.899
291.887
291.884
291.888
291.899
291.915
291.934
291.957
291.981
292.006
292.03
292.054
292.078
292.108
292.143
292.183
292.23
292.28
292.331
292.384
292.434
292.482
292.527
292.567
292.603
292.635
292.662
292.685
292.705
292.722
292.735
292.747
292.756
292.764
292.772
292.779
292.788
292.799
292.811
292.826
292.841
292.858
292.876
292.895
292.913
292.932
292.95
292.967
292.983
292.998
293.012
293.025
293.037
293.048
293.059
293.068
293.077
293.086
293.094
293.101
293.109
293.116
293.123
293.13
293.137
293.144
293.151
293.158
293.166
293.174
293.182
293.189
293.196
293.198
293.19
293.164
293.112
293.014
292.843
292.526
291.925
290.846
289.163
301.195
295.626
293.921
293.44
293.309
293.274
293.265
293.263
293.262
293.262
293.262
293.262
293.261
293.261
293.261
293.261
293.26
293.26
293.26
293.259
293.259
293.259
293.258
293.257
293.255
293.252
293.246
293.234
293.213
293.176
293.117
293.028
292.905
292.746
292.556
292.347
292.133
291.931
291.753
291.607
291.496
291.418
291.369
291.344
291.335
291.339
291.352
291.369
291.39
291.412
291.434
291.457
291.479
291.501
291.522
291.543
291.564
291.584
291.604
291.624
291.643
291.662
291.681
291.7
291.719
291.738
291.756
291.775
291.794
291.813
291.833
291.855
291.878
291.903
291.93
291.959
291.989
292.021
292.053
292.086
292.12
292.154
292.187
292.22
292.252
292.283
292.313
292.342
292.369
292.394
292.418
292.44
292.46
292.477
292.493
292.507
292.518
292.527
292.534
292.537
292.536
292.533
292.526
292.517
292.504
292.488
292.467
292.442
292.412
292.378
292.34
292.298
292.253
292.207
292.162
292.119
292.08
292.046
292.019
292.0
291.987
291.982
291.983
291.99
292.001
292.016
292.033
292.053
292.076
292.106
292.143
292.187
292.237
292.291
292.347
292.404
292.459
292.512
292.561
292.606
292.647
292.684
292.716
292.744
292.768
292.789
292.807
292.823
292.836
292.848
292.86
292.87
292.881
292.891
292.903
292.914
292.927
292.94
292.954
292.968
292.983
292.997
293.011
293.025
293.038
293.051
293.062
293.073
293.083
293.093
293.102
293.11
293.117
293.125
293.131
293.138
293.144
293.149
293.155
293.161
293.166
293.172
293.177
293.182
293.188
293.193
293.199
293.204
293.209
293.212
293.21
293.199
293.172
293.122
293.035
292.878
292.581
291.994
290.901
289.175
301.302
295.697
293.951
293.451
293.313
293.276
293.266
293.263
293.263
293.262
293.262
293.262
293.262
293.262
293.261
293.261
293.261
293.261
293.26
293.26
293.26
293.259
293.259
293.258
293.257
293.254
293.249
293.239
293.221
293.19
293.139
293.062
292.952
292.807
292.631
292.431
292.223
292.02
291.837
291.682
291.559
291.469
291.408
291.372
291.354
291.351
291.358
291.372
291.391
291.411
291.433
291.456
291.478
291.499
291.521
291.541
291.561
291.58
291.599
291.617
291.635
291.652
291.668
291.685
291.701
291.718
291.734
291.752
291.77
291.791
291.814
291.839
291.867
291.897
291.93
291.964
292.0
292.037
292.075
292.114
292.152
292.19
292.228
292.265
292.301
292.335
292.368
292.4
292.429
292.457
292.483
292.507
292.529
292.549
292.567
292.583
292.597
292.608
292.618
292.625
292.629
292.63
292.628
292.624
292.616
292.606
292.593
292.576
292.555
292.53
292.501
292.468
292.432
292.393
292.351
292.31
292.269
292.23
292.195
292.165
292.142
292.124
292.113
292.108
292.11
292.116
292.128
292.145
292.17
292.205
292.246
292.293
292.345
292.401
292.456
292.512
292.565
292.615
292.661
292.704
292.742
292.776
292.806
292.833
292.856
292.876
292.894
292.909
292.923
292.935
292.947
292.958
292.968
292.979
292.989
293.0
293.011
293.022
293.033
293.044
293.055
293.066
293.077
293.088
293.098
293.107
293.116
293.124
293.132
293.139
293.146
293.152
293.158
293.163
293.168
293.173
293.178
293.182
293.187
293.191
293.195
293.199
293.203
293.207
293.21
293.214
293.218
293.221
293.224
293.224
293.219
293.206
293.178
293.128
293.044
292.9
292.619
292.046
290.945
289.186
301.401
295.766
293.981
293.462
293.317
293.277
293.267
293.264
293.263
293.263
293.263
293.262
293.262
293.262
293.262
293.262
293.261
293.261
293.261
293.261
293.26
293.26
293.259
293.259
293.258
293.255
293.251
293.244
293.229
293.204
293.162
293.097
293.002
292.874
292.714
292.528
292.328
292.127
291.94
291.776
291.64
291.536
291.46
291.409
291.38
291.367
291.365
291.373
291.387
291.404
291.423
291.444
291.464
291.485
291.504
291.524
291.542
291.56
291.577
291.593
291.609
291.624
291.639
291.654
291.67
291.686
291.704
291.723
291.745
291.77
291.798
291.829
291.863
291.9
291.938
291.978
292.02
292.063
292.106
292.149
292.192
292.234
292.275
292.315
292.354
292.391
292.426
292.46
292.491
292.521
292.548
292.574
292.597
292.619
292.638
292.656
292.671
292.685
292.696
292.706
292.713
292.718
292.72
292.719
292.716
292.71
292.702
292.691
292.677
292.66
292.64
292.616
292.59
292.56
292.527
292.493
292.458
292.422
292.389
292.358
292.331
292.308
292.292
292.281
292.276
292.278
292.287
292.303
292.329
292.362
292.402
292.446
292.493
292.543
292.592
292.641
292.687
292.731
292.771
292.808
292.841
292.871
292.897
292.92
292.941
292.959
292.975
292.989
293.002
293.013
293.024
293.033
293.043
293.052
293.061
293.07
293.078
293.087
293.096
293.105
293.113
293.122
293.13
293.137
293.145
293.151
293.158
293.164
293.17
293.175
293.18
293.185
293.189
293.193
293.197
293.2
293.204
293.207
293.21
293.213
293.216
293.219
293.222
293.225
293.227
293.23
293.232
293.234
293.234
293.233
293.226
293.211
293.182
293.132
293.05
292.91
292.644
292.084
290.981
289.196
301.495
295.832
294.01
293.473
293.321
293.279
293.267
293.264
293.263
293.263
293.263
293.263
293.262
293.262
293.262
293.262
293.262
293.262
293.261
293.261
293.261
293.26
293.26
293.259
293.258
293.257
293.254
293.248
293.237
293.217
293.184
293.131
293.052
292.943
292.802
292.633
292.445
292.25
292.062
291.89
291.742
291.622
291.53
291.463
291.419
291.392
291.38
291.378
291.384
291.396
291.41
291.427
291.445
291.463
291.481
291.498
291.515
291.531
291.546
291.561
291.576
291.591
291.606
291.621
291.638
291.656
291.677
291.701
291.728
291.759
291.793
291.831
291.871
291.913
291.958
292.003
292.05
292.097
292.145
292.192
292.238
292.283
292.327
292.369
292.41
292.449
292.486
292.52
292.553
292.584
292.612
292.639
292.663
292.685
292.706
292.724
292.74
292.755
292.768
292.779
292.788
292.796
292.801
292.804
292.804
292.801
292.797
292.791
292.782
292.772
292.758
292.742
292.724
292.703
292.679
292.654
292.628
292.6
292.573
292.547
292.524
292.503
292.487
292.476
292.47
292.471
292.478
292.495
292.518
292.546
292.579
292.616
292.654
292.694
292.733
292.772
292.809
292.844
292.877
292.907
292.934
292.959
292.981
293.0
293.017
293.032
293.046
293.058
293.069
293.078
293.087
293.096
293.103
293.111
293.118
293.125
293.132
293.138
293.145
293.151
293.158
293.164
293.169
293.175
293.18
293.185
293.19
293.194
293.198
293.202
293.206
293.209
293.212
293.215
293.218
293.22
293.223
293.225
293.227
293.229
293.232
293.234
293.236
293.237
293.239
293.241
293.242
293.243
293.242
293.239
293.231
293.215
293.185
293.136
293.055
292.917
292.657
292.112
291.009
289.205
301.584
295.896
294.039
293.484
293.325
293.28
293.268
293.264
293.263
293.263
293.263
293.263
293.263
293.263
293.262
293.262
293.262
293.262
293.262
293.262
293.261
293.261
293.261
293.26
293.259
293.258
293.256
293.251
293.243
293.229
293.203
293.162
293.099
293.009
292.889
292.74
292.569
292.385
292.2
292.024
291.867
291.732
291.624
291.539
291.478
291.435
291.409
291.395
291.391
291.395
291.403
291.414
291.427
291.442
291.457
291.472
291.487
291.502
291.516
291.531
291.545
291.561
291.577
291.594
291.614
291.636
291.662
291.691
291.725
291.762
291.802
291.845
291.891
291.939
291.988
292.039
292.09
292.141
292.192
292.242
292.29
292.338
292.384
292.427
292.469
292.509
292.547
292.582
292.615
292.646
292.675
292.702
292.726
292.749
292.769
292.788
292.805
292.82
292.834
292.845
292.856
292.864
292.872
292.877
292.88
292.881
292.88
292.877
292.873
292.866
292.858
292.848
292.836
292.822
292.807
292.789
292.771
292.752
292.733
292.714
292.696
292.681
292.669
292.66
292.657
292.659
292.666
292.681
292.699
292.722
292.747
292.774
292.804
292.833
292.863
292.893
292.921
292.947
292.972
292.995
293.016
293.036
293.053
293.068
293.082
293.094
293.105
293.114
293.123
293.131
293.138
293.144
293.15
293.156
293.162
293.167
293.172
293.177
293.182
293.186
293.191
293.195
293.199
293.203
293.206
293.21
293.213
293.216
293.219
293.222
293.224
293.226
293.229
293.231
293.233
293.234
293.236
293.238
293.239
293.241
293.242
293.244
293.245
293.246
293.247
293.248
293.249
293.249
293.247
293.243
293.234
293.218
293.188
293.139
293.059
292.923
292.666
292.13
291.033
289.215
301.668
295.959
294.067
293.495
293.329
293.281
293.268
293.265
293.264
293.263
293.263
293.263
293.263
293.263
293.263
293.263
293.262
293.262
293.262
293.262
293.262
293.261
293.261
293.261
293.26
293.259
293.257
293.254
293.249
293.238
293.219
293.188
293.14
293.068
292.97
292.844
292.694
292.526
292.349
292.175
292.012
291.867
291.744
291.643
291.563
291.504
291.461
291.433
291.417
291.41
291.409
291.413
291.42
291.43
291.442
291.454
291.467
291.481
291.495
291.509
291.524
291.541
291.559
291.58
291.603
291.631
291.662
291.697
291.737
291.779
291.825
291.874
291.925
291.977
292.031
292.085
292.14
292.194
292.247
292.299
292.35
292.398
292.445
292.49
292.532
292.572
292.609
292.645
292.678
292.708
292.736
292.763
292.787
292.809
292.829
292.848
292.865
292.88
292.893
292.905
292.916
292.925
292.933
292.94
292.945
292.949
292.95
292.95
292.949
292.946
292.942
292.936
292.929
292.92
292.911
292.9
292.888
292.876
292.863
292.851