/*--------------------------------*- C++ -*----------------------------------*\
  =========                 |
  \\      /  F ield         | OpenFOAM: The Open Source CFD Toolbox
   \\    /   O peration     | Website:  https://openfoam.org
    \\  /    A nd           | Version:  11
     \\/     M anipulation  |
\*---------------------------------------------------------------------------*/
FoamFile
{
    format      ascii;
    class       volVectorField;
    location    "3";
    object      U;
}
// * * * * * * * * * * * * * * * * * * * * * * * * * * * * * * * * * * * * * //

dimensions      [0 1 -1 0 0 0 0];

internalField   nonuniform List<vector> 
40000
(
(-0.0118233 0.00831814 0.0)
(-0.0169246 -0.000243989 0.0)
(-0.0148069 -0.00176884 0.0)
(-0.0117086 -0.00150922 0.0)
(-0.00918611 -0.0010025 0.0)
(-0.00748964 -0.000610405 0.0)
(-0.00642125 -0.000355203 0.0)
(-0.00577722 -0.000196336 0.0)
(-0.00541587 -9.73009e-05 0.0)
(-0.00524728 -3.34766e-05 0.0)
(-0.00521384 9.80395e-06 0.0)
(-0.00529027 3.87353e-05 0.0)
(-0.00544423 5.93839e-05 0.0)
(-0.00565751 7.47304e-05 0.0)
(-0.00591941 8.66858e-05 0.0)
(-0.00622307 9.66273e-05 0.0)
(-0.00656421 0.000105423 0.0)
(-0.00694036 0.000113602 0.0)
(-0.00735033 0.000121486 0.0)
(-0.00779382 0.00012927 0.0)
(-0.00827123 0.000137071 0.0)
(-0.00878341 0.000144946 0.0)
(-0.00933165 0.000152902 0.0)
(-0.00991749 0.000160903 0.0)
(-0.0105427 0.00016887 0.0)
(-0.0112093 0.000176677 0.0)
(-0.0119194 0.00018415 0.0)
(-0.012675 0.000191049 0.0)
(-0.0134785 0.000197056 0.0)
(-0.0143319 0.000201744 0.0)
(-0.0152367 0.000204555 0.0)
(-0.016193 0.000204802 0.0)
(-0.0171983 0.000201707 0.0)
(-0.0182446 0.000194478 0.0)
(-0.0193164 0.000182356 0.0)
(-0.0203877 0.000164549 0.0)
(-0.021421 0.000140119 0.0)
(-0.0223691 0.000108054 0.0)
(-0.0231802 6.78184e-05 0.0)
(-0.0238065 2.0323e-05 0.0)
(-0.0242132 -3.12921e-05 0.0)
(-0.0243825 -8.08364e-05 0.0)
(-0.0243218 -0.000118181 0.0)
(-0.0240603 -0.000145685 0.0)
(-0.0235893 -0.000174712 0.0)
(-0.0229297 -0.000206313 0.0)
(-0.0221088 -0.000238131 0.0)
(-0.0211594 -0.000267066 0.0)
(-0.0201166 -0.000290617 0.0)
(-0.0190146 -0.000307251 0.0)
(-0.0178841 -0.000316367 0.0)
(-0.0167512 -0.000318059 0.0)
(-0.0156376 -0.000312841 0.0)
(-0.0145609 -0.000301386 0.0)
(-0.0135354 -0.000284369 0.0)
(-0.0125733 -0.000262369 0.0)
(-0.0116852 -0.000235846 0.0)
(-0.0108809 -0.000205174 0.0)
(-0.0101694 -0.000170692 0.0)
(-0.00955933 -0.000132752 0.0)
(-0.00905874 -9.17008e-05 0.0)
(-0.00867502 -4.77875e-05 0.0)
(-0.00841486 -9.80358e-07 0.0)
(-0.00828184 4.95867e-05 0.0)
(-0.00827355 0.00010239 0.0)
(-0.00841092 0.000147513 0.0)
(-0.00869513 0.00018668 0.0)
(-0.00911077 0.000217802 0.0)
(-0.00963966 0.000239079 0.0)
(-0.0102579 0.000249216 0.0)
(-0.0109377 0.000247935 0.0)
(-0.01165 0.000235573 0.0)
(-0.0123666 0.000213098 0.0)
(-0.0130631 0.000182329 0.0)
(-0.0137196 0.000145774 0.0)
(-0.014322 0.000106246 0.0)
(-0.0148622 6.64551e-05 0.0)
(-0.0153382 2.87103e-05 0.0)
(-0.0157525 -5.25189e-06 0.0)
(-0.0161116 -3.43142e-05 0.0)
(-0.0164241 -5.79244e-05 0.0)
(-0.0166995 -7.5983e-05 0.0)
(-0.0169471 -8.87162e-05 0.0)
(-0.0171752 -9.65578e-05 0.0)
(-0.0173906 -0.000100055 0.0)
(-0.0175985 -9.9803e-05 0.0)
(-0.0178025 -9.64135e-05 0.0)
(-0.0180049 -9.04988e-05 0.0)
(-0.0182067 -8.26719e-05 0.0)
(-0.0184078 -7.35421e-05 0.0)
(-0.018607 -6.37011e-05 0.0)
(-0.0188025 -5.37073e-05 0.0)
(-0.0189917 -4.40757e-05 0.0)
(-0.0191714 -3.5278e-05 0.0)
(-0.0193379 -2.77536e-05 0.0)
(-0.019487 -2.19431e-05 0.0)
(-0.0196137 -1.83997e-05 0.0)
(-0.0197124 -1.80579e-05 0.0)
(-0.0197773 -2.23046e-05 0.0)
(-0.0198027 -3.12992e-05 0.0)
(-0.0197837 -4.1592e-05 0.0)
(-0.0197152 -5.03079e-05 0.0)
(-0.0195793 -5.99136e-05 0.0)
(-0.0193609 -7.20802e-05 0.0)
(-0.0190435 -8.824e-05 0.0)
(-0.0186111 -0.000109647 0.0)
(-0.0180504 -0.000137139 0.0)
(-0.0173519 -0.000170821 0.0)
(-0.0165122 -0.000209776 0.0)
(-0.0155353 -0.000251871 0.0)
(-0.014435 -0.000293686 0.0)
(-0.0132362 -0.000330525 0.0)
(-0.0119758 -0.000356221 0.0)
(-0.0107024 -0.000363283 0.0)
(-0.00947473 -0.000343752 0.0)
(-0.00835737 -0.000290538 0.0)
(-0.00741435 -0.000200628 0.0)
(-0.00670038 -8.20488e-05 0.0)
(-0.00625289 3.77812e-05 0.0)
(-0.00607533 0.000125154 0.0)
(-0.00623586 0.00015389 0.0)
(-0.00675579 0.000155862 0.0)
(-0.00753462 0.000132562 0.0)
(-0.00850558 9.15191e-05 0.0)
(-0.00963302 4.65586e-05 0.0)
(-0.0109078 1.63566e-05 0.0)
(-0.0123343 1.65083e-05 0.0)
(-0.0139161 5.34164e-05 0.0)
(-0.0156428 0.000122193 0.0)
(-0.017481 0.000208774 0.0)
(-0.0193741 0.000294572 0.0)
(-0.0212488 0.00036187 0.0)
(-0.0230262 0.000397937 0.0)
(-0.0246333 0.000396915 0.0)
(-0.0260121 0.000359648 0.0)
(-0.0271254 0.000292146 0.0)
(-0.0279591 0.00020357 0.0)
(-0.0285219 0.000104422 0.0)
(-0.0288441 5.27593e-06 0.0)
(-0.0289706 -8.355e-05 0.0)
(-0.0289525 -0.000154677 0.0)
(-0.0288629 -0.000218721 0.0)
(-0.0287199 -0.000283192 0.0)
(-0.0285738 -0.000319841 0.0)
(-0.0284976 -0.000304841 0.0)
(-0.0286686 -0.000255849 0.0)
(-0.0290821 -0.000191532 0.0)
(-0.0297867 -0.000105064 0.0)
(-0.0308243 8.52667e-06 0.0)
(-0.0322239 0.000149841 0.0)
(-0.0340002 0.000316137 0.0)
(-0.03615 0.000501498 0.0)
(-0.0386501 0.00069673 0.0)
(-0.0414561 0.000889763 0.0)
(-0.0445029 0.00106669 0.0)
(-0.047708 0.00121327 0.0)
(-0.0509774 0.0013168 0.0)
(-0.0542138 0.00136913 0.0)
(-0.0573248 0.00136882 0.0)
(-0.0602324 0.0013212 0.0)
(-0.0628806 0.00123711 0.0)
(-0.065241 0.00113074 0.0)
(-0.067313 0.00101699 0.0)
(-0.0691217 0.00090961 0.0)
(-0.0707127 0.000820104 0.0)
(-0.0721454 0.000756569 0.0)
(-0.073485 0.000723497 0.0)
(-0.0747965 0.000722747 0.0)
(-0.0761394 0.000754053 0.0)
(-0.0775645 0.000814472 0.0)
(-0.0791115 0.000899339 0.0)
(-0.0808098 0.00100391 0.0)
(-0.0826782 0.00112353 0.0)
(-0.0847263 0.00125385 0.0)
(-0.0869555 0.00139105 0.0)
(-0.08936 0.00153175 0.0)
(-0.0919281 0.00167288 0.0)
(-0.0946421 0.00181141 0.0)
(-0.0974787 0.00194412 0.0)
(-0.100409 0.00206738 0.0)
(-0.103395 0.00217673 0.0)
(-0.106394 0.00226649 0.0)
(-0.109348 0.00232895 0.0)
(-0.112188 0.002353 0.0)
(-0.114823 0.00232246 0.0)
(-0.117135 0.00221446 0.0)
(-0.11897 0.00199931 0.0)
(-0.120132 0.00163819 0.0)
(-0.120382 0.00105332 0.0)
(-0.11939 0.000179561 0.0)
(-0.116699 -0.000984273 0.0)
(-0.111867 -0.00245384 0.0)
(-0.104398 -0.00424795 0.0)
(-0.093778 -0.00636267 0.0)
(-0.0796017 -0.00873809 0.0)
(-0.061885 -0.0111781 0.0)
(-0.0415699 -0.0131127 0.0)
(-0.0206271 -0.0129275 0.0)
(0.00057836 -0.00573863 0.0)
(0.00625375 0.00266533 0.0)
(-0.00995375 0.0212887 0.0)
(-0.015988 0.00231563 0.0)
(-0.0170291 -0.00358549 0.0)
(-0.0160348 -0.00389068 0.0)
(-0.0145982 -0.00298334 0.0)
(-0.013343 -0.00204891 0.0)
(-0.0124094 -0.00132752 0.0)
(-0.0117757 -0.000809132 0.0)
(-0.011392 -0.000439764 0.0)
(-0.0112117 -0.000170869 0.0)
(-0.0111994 3.21141e-05 0.0)
(-0.0113287 0.000188822 0.0)
(-0.0115749 0.000311537 0.0)
(-0.011922 0.000410549 0.0)
(-0.0123569 0.000493907 0.0)
(-0.0128705 0.000567323 0.0)
(-0.013457 0.000634728 0.0)
(-0.0141131 0.000698855 0.0)
(-0.0148376 0.000761666 0.0)
(-0.0156308 0.000824626 0.0)
(-0.0164943 0.000888866 0.0)
(-0.0174313 0.000955286 0.0)
(-0.0184458 0.00102462 0.0)
(-0.0195431 0.00109748 0.0)
(-0.0207299 0.00117441 0.0)
(-0.0220142 0.00125588 0.0)
(-0.0234057 0.00134237 0.0)
(-0.024916 0.00143433 0.0)
(-0.0265586 0.00153212 0.0)
(-0.0283485 0.00163571 0.0)
(-0.0302998 0.00174405 0.0)
(-0.0324214 0.00185386 0.0)
(-0.03471 0.00195796 0.0)
(-0.0371414 0.00204352 0.0)
(-0.0396626 0.00209148 0.0)
(-0.0421894 0.0020784 0.0)
(-0.0446118 0.00198155 0.0)
(-0.0468077 0.00178596 0.0)
(-0.0486609 0.0014907 0.0)
(-0.0500785 0.0011117 0.0)
(-0.0509999 0.000679809 0.0)
(-0.0513972 0.000234611 0.0)
(-0.0512862 -0.000190767 0.0)
(-0.0507242 -0.000593555 0.0)
(-0.0497668 -0.000970204 0.0)
(-0.0484944 -0.00130173 0.0)
(-0.0469946 -0.0015721 0.0)
(-0.0453489 -0.00177432 0.0)
(-0.0436261 -0.00190984 0.0)
(-0.0418796 -0.00198556 0.0)
(-0.0401486 -0.0020108 0.0)
(-0.0384609 -0.00199504 0.0)
(-0.0368361 -0.00194661 0.0)
(-0.035288 -0.00187207 0.0)
(-0.0338272 -0.00177619 0.0)
(-0.0324628 -0.00166216 0.0)
(-0.0312032 -0.0015319 0.0)
(-0.0300569 -0.00138646 0.0)
(-0.0290329 -0.00122633 0.0)
(-0.0281405 -0.00105178 0.0)
(-0.027389 -0.00086329 0.0)
(-0.0267875 -0.000662176 0.0)
(-0.0263452 -0.000451175 0.0)
(-0.0260719 -0.000231924 0.0)
(-0.0259789 -6.0029e-07 0.0)
(-0.0260995 0.000236223 0.0)
(-0.0264516 0.000471576 0.0)
(-0.0270302 0.000691045 0.0)
(-0.0278203 0.000882878 0.0)
(-0.028798 0.00103811 0.0)
(-0.0299331 0.00115072 0.0)
(-0.0311915 0.00121796 0.0)
(-0.0325379 0.00124059 0.0)
(-0.033938 0.00122305 0.0)
(-0.0353618 0.00117282 0.0)
(-0.0367848 0.00109932 0.0)
(-0.0381888 0.00101263 0.0)
(-0.0395614 0.000922184 0.0)
(-0.0408953 0.000835795 0.0)
(-0.0421867 0.000758997 0.0)
(-0.0434338 0.000694871 0.0)
(-0.0446357 0.000644257 0.0)
(-0.0457916 0.000606258 0.0)
(-0.0469002 0.000578851 0.0)
(-0.0479595 0.000559478 0.0)
(-0.0489672 0.000545498 0.0)
(-0.0499206 0.00053446 0.0)
(-0.0508172 0.000524238 0.0)
(-0.0516541 0.000513067 0.0)
(-0.052429 0.000499521 0.0)
(-0.0531396 0.000482468 0.0)
(-0.0537839 0.000461004 0.0)
(-0.0543598 0.000434384 0.0)
(-0.0548652 0.00040195 0.0)
(-0.0552979 0.000363068 0.0)
(-0.0556554 0.000317025 0.0)
(-0.0559346 0.000262881 0.0)
(-0.0561316 0.000199809 0.0)
(-0.0562406 0.000128887 0.0)
(-0.056255 5.45001e-05 0.0)
(-0.0561755 -2.32397e-05 0.0)
(-0.0559757 -0.000122231 0.0)
(-0.0556346 -0.000252482 0.0)
(-0.0551331 -0.000415895 0.0)
(-0.0544558 -0.0006106 0.0)
(-0.0535931 -0.000831974 0.0)
(-0.0525424 -0.00107286 0.0)
(-0.0513092 -0.0013236 0.0)
(-0.0499077 -0.00157219 0.0)
(-0.0483614 -0.00180447 0.0)
(-0.0467038 -0.00200456 0.0)
(-0.0449778 -0.00215548 0.0)
(-0.043236 -0.00224007 0.0)
(-0.0415395 -0.00224282 0.0)
(-0.0399572 -0.00215279 0.0)
(-0.0385642 -0.0019671 0.0)
(-0.0374421 -0.00169104 0.0)
(-0.0366784 -0.00132172 0.0)
(-0.0363685 -0.000820834 0.0)
(-0.0367385 -0.000174995 0.0)
(-0.0379324 0.000517762 0.0)
(-0.039746 0.00115063 0.0)
(-0.042147 0.00168403 0.0)
(-0.0450563 0.00213033 0.0)
(-0.0483792 0.00251928 0.0)
(-0.0520156 0.00287253 0.0)
(-0.0558595 0.00319108 0.0)
(-0.0598014 0.00345676 0.0)
(-0.0637357 0.00364146 0.0)
(-0.067566 0.00371813 0.0)
(-0.0712076 0.00366947 0.0)
(-0.0745881 0.00349191 0.0)
(-0.0776482 0.00319588 0.0)
(-0.080344 0.00280358 0.0)
(-0.0826488 0.00234548 0.0)
(-0.0845553 0.00185643 0.0)
(-0.0860761 0.00137203 0.0)
(-0.0872429 0.000925772 0.0)
(-0.0881041 0.000546828 0.0)
(-0.0887202 0.000258071 0.0)
(-0.0891627 7.16421e-05 0.0)
(-0.0895278 -1.57588e-05 0.0)
(-0.0899422 -5.61886e-07 0.0)
(-0.0904833 0.000134245 0.0)
(-0.0911883 0.000394255 0.0)
(-0.0920661 0.000759532 0.0)
(-0.093222 0.00120775 0.0)
(-0.0946974 0.0017241 0.0)
(-0.0965205 0.00228949 0.0)
(-0.0987009 0.00287997 0.0)
(-0.10123 0.00346753 0.0)
(-0.104079 0.0040214 0.0)
(-0.107204 0.00450985 0.0)
(-0.110539 0.00490256 0.0)
(-0.114008 0.00517342 0.0)
(-0.11752 0.00530347 0.0)
(-0.120979 0.00528375 0.0)
(-0.124286 0.00511768 0.0)
(-0.127351 0.00482183 0.0)
(-0.1301 0.00442462 0.0)
(-0.132479 0.00396359 0.0)
(-0.134465 0.0034811 0.0)
(-0.136061 0.00301853 0.0)
(-0.137295 0.00261179 0.0)
(-0.138217 0.00228822 0.0)
(-0.138893 0.00206317 0.0)
(-0.139391 0.00193983 0.0)
(-0.13978 0.00191297 0.0)
(-0.140125 0.00197205 0.0)
(-0.140477 0.00210087 0.0)
(-0.140877 0.00228022 0.0)
(-0.141351 0.00249317 0.0)
(-0.141914 0.00272426 0.0)
(-0.142571 0.0029595 0.0)
(-0.143316 0.00318676 0.0)
(-0.144138 0.00339549 0.0)
(-0.145016 0.00357626 0.0)
(-0.145926 0.00372014 0.0)
(-0.146836 0.00381802 0.0)
(-0.147712 0.00385994 0.0)
(-0.14851 0.00383416 0.0)
(-0.14918 0.00372594 0.0)
(-0.149663 0.00351584 0.0)
(-0.149887 0.00317729 0.0)
(-0.149762 0.00267466 0.0)
(-0.149173 0.00196305 0.0)
(-0.147968 0.000985914 0.0)
(-0.145984 -0.000326834 0.0)
(-0.143073 -0.00202621 0.0)
(-0.139011 -0.00420871 0.0)
(-0.133604 -0.00695739 0.0)
(-0.126512 -0.0103377 0.0)
(-0.117331 -0.0143884 0.0)
(-0.105627 -0.0190758 0.0)
(-0.0910496 -0.0242152 0.0)
(-0.0735608 -0.0292967 0.0)
(-0.0537624 -0.0330719 0.0)
(-0.0330961 -0.0327046 0.0)
(-0.0136774 -0.0227384 0.0)
(0.00482567 0.00475679 0.0)
(-0.0079461 0.033032 0.0)
(-0.0134535 0.00778213 0.0)
(-0.0160017 -0.00259972 0.0)
(-0.0164225 -0.00437839 0.0)
(-0.0160883 -0.00376814 0.0)
(-0.0155942 -0.00276567 0.0)
(-0.0151628 -0.00187651 0.0)
(-0.0148595 -0.00117478 0.0)
(-0.0146983 -0.000632156 0.0)
(-0.0146763 -0.000206742 0.0)
(-0.0147877 0.000135211 0.0)
(-0.015014 0.000416605 0.0)
(-0.0153485 0.000649617 0.0)
(-0.015784 0.000847608 0.0)
(-0.016314 0.0010215 0.0)
(-0.0169335 0.0011796 0.0)
(-0.0176395 0.00132813 0.0)
(-0.0184308 0.00147189 0.0)
(-0.0193079 0.00161465 0.0)
(-0.0202731 0.00175952 0.0)
(-0.0213304 0.00190918 0.0)
(-0.0224855 0.00206608 0.0)
(-0.0237462 0.00223256 0.0)
(-0.0251222 0.00241103 0.0)
(-0.0266262 0.00260411 0.0)
(-0.0282739 0.0028148 0.0)
(-0.0300848 0.00304657 0.0)
(-0.0320824 0.00330308 0.0)
(-0.034293 0.00358725 0.0)
(-0.0367418 0.00389899 0.0)
(-0.0394457 0.00423127 0.0)
(-0.0424016 0.0045651 0.0)
(-0.0455727 0.0048653 0.0)
(-0.0488794 0.00508065 0.0)
(-0.0521988 0.00515101 0.0)
(-0.055377 0.00502087 0.0)
(-0.0582506 0.00465466 0.0)
(-0.0606713 0.00404791 0.0)
(-0.0625264 0.00323005 0.0)
(-0.0637495 0.0022589 0.0)
(-0.0643234 0.00120987 0.0)
(-0.0642755 0.000161348 0.0)
(-0.0636802 -0.000828021 0.0)
(-0.0626162 -0.00170794 0.0)
(-0.0612352 -0.00243741 0.0)
(-0.0596679 -0.00299645 0.0)
(-0.0580185 -0.00338754 0.0)
(-0.056361 -0.00362913 0.0)
(-0.0547428 -0.00374724 0.0)
(-0.053192 -0.00376882 0.0)
(-0.0517231 -0.00371778 0.0)
(-0.0503435 -0.00361311 0.0)
(-0.0490563 -0.00346865 0.0)
(-0.0478638 -0.00329355 0.0)
(-0.0467684 -0.00309324 0.0)
(-0.0457739 -0.00287037 0.0)
(-0.0448857 -0.00262573 0.0)
(-0.0441108 -0.00235918 0.0)
(-0.0434576 -0.00207064 0.0)
(-0.0429365 -0.00176126 0.0)
(-0.0425601 -0.00143416 0.0)
(-0.0423441 -0.00109142 0.0)
(-0.0423079 -0.000727428 0.0)
(-0.042479 -0.00032192 0.0)
(-0.0429364 0.000139461 0.0)
(-0.0436524 0.000633881 0.0)
(-0.0445854 0.00112627 0.0)
(-0.0457241 0.00158911 0.0)
(-0.0470477 0.00200082 0.0)
(-0.048534 0.00234542 0.0)
(-0.0501586 0.00261306 0.0)
(-0.0518962 0.00280059 0.0)
(-0.0537215 0.00291118 0.0)
(-0.0556104 0.00295322 0.0)
(-0.0575398 0.00293877 0.0)
(-0.0594885 0.00288171 0.0)
(-0.0614367 0.00279577 0.0)
(-0.0633662 0.00269298 0.0)
(-0.0652598 0.00258263 0.0)
(-0.0671019 0.00247091 0.0)
(-0.0688788 0.00236115 0.0)
(-0.0705784 0.00225442 0.0)
(-0.0721908 0.00215032 0.0)
(-0.0737084 0.00204772 0.0)
(-0.0751256 0.00194533 0.0)
(-0.0764385 0.00184196 0.0)
(-0.0776448 0.00173671 0.0)
(-0.0787434 0.00162891 0.0)
(-0.0797339 0.00151809 0.0)
(-0.0806167 0.00140385 0.0)
(-0.0813926 0.0012858 0.0)
(-0.0820624 0.00116351 0.0)
(-0.0826271 0.00103644 0.0)
(-0.0830872 0.000903884 0.0)
(-0.0834429 0.000764896 0.0)
(-0.0836942 0.000618214 0.0)
(-0.0838398 0.000462143 0.0)
(-0.0838768 0.000294789 0.0)
(-0.0838002 0.000113574 0.0)
(-0.0836097 -9.02314e-05 0.0)
(-0.0832693 -0.000328414 0.0)
(-0.0827762 -0.000609332 0.0)
(-0.0821331 -0.00093068 0.0)
(-0.0813457 -0.00128672 0.0)
(-0.0804231 -0.00166944 0.0)
(-0.0793776 -0.00206831 0.0)
(-0.0782254 -0.00247008 0.0)
(-0.0769876 -0.0028586 0.0)
(-0.0756912 -0.00321482 0.0)
(-0.07437 -0.00351691 0.0)
(-0.0730654 -0.00374068 0.0)
(-0.0718268 -0.00386012 0.0)
(-0.0707124 -0.00384838 0.0)
(-0.0697903 -0.00367876 0.0)
(-0.0691381 -0.00332565 0.0)
(-0.0688419 -0.00276392 0.0)
(-0.0689886 -0.00196581 0.0)
(-0.0696733 -0.000909898 0.0)
(-0.071073 0.000366355 0.0)
(-0.072952 0.00171948 0.0)
(-0.0750597 0.0030027 0.0)
(-0.0775661 0.00414549 0.0)
(-0.0805009 0.00513457 0.0)
(-0.0838375 0.00596728 0.0)
(-0.0875061 0.00664507 0.0)
(-0.0914104 0.00716798 0.0)
(-0.0954421 0.00753198 0.0)
(-0.0994924 0.00772901 0.0)
(-0.103458 0.00774944 0.0)
(-0.107248 0.00758618 0.0)
(-0.110784 0.00723954 0.0)
(-0.114003 0.00672089 0.0)
(-0.116862 0.00605441 0.0)
(-0.119332 0.00527625 0.0)
(-0.121405 0.00443164 0.0)
(-0.123089 0.00357074 0.0)
(-0.124411 0.00274413 0.0)
(-0.125412 0.00199908 0.0)
(-0.126147 0.00137673 0.0)
(-0.126678 0.000909365 0.0)
(-0.127074 0.000618487 0.0)
(-0.127409 0.000514723 0.0)
(-0.127753 0.000595013 0.0)
(-0.128172 0.000849342 0.0)
(-0.128724 0.0012693 0.0)
(-0.129454 0.00184244 0.0)
(-0.130394 0.00254316 0.0)
(-0.13157 0.00333739 0.0)
(-0.132992 0.00418887 0.0)
(-0.134656 0.00505761 0.0)
(-0.136543 0.00589994 0.0)
(-0.13862 0.00666977 0.0)
(-0.140838 0.00732078 0.0)
(-0.143137 0.00780939 0.0)
(-0.145446 0.00809846 0.0)
(-0.147688 0.00816154 0.0)
(-0.149782 0.00798699 0.0)
(-0.15165 0.00758146 0.0)
(-0.153226 0.00697208 0.0)
(-0.154458 0.0062061 0.0)
(-0.155319 0.00534706 0.0)
(-0.155808 0.00446722 0.0)
(-0.155951 0.0036348 0.0)
(-0.155794 0.00290492 0.0)
(-0.1554 0.00231804 0.0)
(-0.154837 0.00189498 0.0)
(-0.154174 0.00163733 0.0)
(-0.153464 0.00153508 0.0)
(-0.152754 0.00157115 0.0)
(-0.152079 0.00171713 0.0)
(-0.151457 0.00193994 0.0)
(-0.150896 0.00221434 0.0)
(-0.150395 0.00251522 0.0)
(-0.149948 0.00281849 0.0)
(-0.149543 0.00310377 0.0)
(-0.149163 0.00335414 0.0)
(-0.148791 0.0035548 0.0)
(-0.148406 0.00369215 0.0)
(-0.147983 0.00375259 0.0)
(-0.147499 0.00372121 0.0)
(-0.146924 0.00358018 0.0)
(-0.146229 0.00330682 0.0)
(-0.14538 0.00287126 0.0)
(-0.144336 0.00223442 0.0)
(-0.143044 0.00134899 0.0)
(-0.14143 0.00016336 0.0)
(-0.139478 -0.00137927 0.0)
(-0.137155 -0.0033627 0.0)
(-0.134275 -0.00589699 0.0)
(-0.130667 -0.00911653 0.0)
(-0.126072 -0.0131774 0.0)
(-0.120173 -0.0182145 0.0)
(-0.112595 -0.0243026 0.0)
(-0.10293 -0.0313917 0.0)
(-0.0908124 -0.0391804 0.0)
(-0.0760658 -0.0468631 0.0)
(-0.0589066 -0.0526228 0.0)
(-0.0401656 -0.0527135 0.0)
(-0.0214181 -0.0400847 0.0)
(-0.0027029 -0.00323007 0.0)
(-0.0065351 0.0426439 0.0)
(-0.0117307 0.0129245 0.0)
(-0.0147789 -0.00084327 0.0)
(-0.0159473 -0.00401067 0.0)
(-0.0163084 -0.00385164 0.0)
(-0.0163949 -0.00295227 0.0)
(-0.0164165 -0.00203437 0.0)
(-0.0164595 -0.00125136 0.0)
(-0.0165625 -0.000607302 0.0)
(-0.0167459 -7.51226e-05 0.0)
(-0.0170184 0.000373649 0.0)
(-0.0173707 0.00075485 0.0)
(-0.0178107 0.00108457 0.0)
(-0.0183378 0.00137645 0.0)
(-0.0189521 0.0016417 0.0)
(-0.0196538 0.00188945 0.0)
(-0.020444 0.00212723 0.0)
(-0.0213244 0.00236131 0.0)
(-0.0222986 0.0025971 0.0)
(-0.0233713 0.00283944 0.0)
(-0.0245492 0.00309291 0.0)
(-0.0258414 0.00336209 0.0)
(-0.0272593 0.00365185 0.0)
(-0.0288178 0.00396767 0.0)
(-0.0305357 0.00431596 0.0)
(-0.0324367 0.00470422 0.0)
(-0.0345495 0.00514056 0.0)
(-0.0369064 0.005632 0.0)
(-0.0395392 0.0061805 0.0)
(-0.0424705 0.0067762 0.0)
(-0.0456996 0.00738896 0.0)
(-0.0491874 0.00796175 0.0)
(-0.0528451 0.00841113 0.0)
(-0.0565341 0.00863874 0.0)
(-0.0600802 0.00855211 0.0)
(-0.0632979 0.00808796 0.0)
(-0.0660193 0.00722933 0.0)
(-0.0681177 0.00601151 0.0)
(-0.0695237 0.00451613 0.0)
(-0.0702306 0.00285684 0.0)
(-0.070291 0.00116067 0.0)
(-0.0698129 -0.000452202 0.0)
(-0.0689296 -0.00188318 0.0)
(-0.0677943 -0.00305172 0.0)
(-0.0665548 -0.0039269 0.0)
(-0.0653095 -0.00452324 0.0)
(-0.0641199 -0.00488078 0.0)
(-0.0630178 -0.00504854 0.0)
(-0.0620155 -0.00507377 0.0)
(-0.061114 -0.00499628 0.0)
(-0.0603097 -0.00484648 0.0)
(-0.0595976 -0.00464569 0.0)
(-0.0589743 -0.00440745 0.0)
(-0.0584388 -0.00413927 0.0)
(-0.0579927 -0.00384435 0.0)
(-0.0576411 -0.00352319 0.0)
(-0.0573916 -0.00317476 0.0)
(-0.0572555 -0.00279756 0.0)
(-0.0572478 -0.00238997 0.0)
(-0.0573881 -0.00194774 0.0)
(-0.0577004 -0.00145991 0.0)
(-0.0582133 -0.000903239 0.0)
(-0.0589765 -0.000260262 0.0)
(-0.0600424 0.000450953 0.0)
(-0.0612722 0.00117648 0.0)
(-0.0626116 0.00188137 0.0)
(-0.064056 0.00254563 0.0)
(-0.0655971 0.003154 0.0)
(-0.0672285 0.00369073 0.0)
(-0.0689433 0.00414244 0.0)
(-0.0707325 0.00450033 0.0)
(-0.0725853 0.00476136 0.0)
(-0.0744886 0.00492834 0.0)
(-0.0764273 0.00500903 0.0)
(-0.0783849 0.00501471 0.0)
(-0.0803432 0.00495841 0.0)
(-0.0822837 0.00485329 0.0)
(-0.0841875 0.00471141 0.0)
(-0.0860365 0.00454295 0.0)
(-0.0878142 0.00435588 0.0)
(-0.0895063 0.00415608 0.0)
(-0.0911011 0.00394758 0.0)
(-0.0925894 0.00373307 0.0)
(-0.093965 0.00351429 0.0)
(-0.0952241 0.00329236 0.0)
(-0.0963649 0.00306803 0.0)
(-0.0973875 0.0028418 0.0)
(-0.0982931 0.00261398 0.0)
(-0.0990837 0.00238469 0.0)
(-0.0997619 0.00215382 0.0)
(-0.100331 0.00192103 0.0)
(-0.100793 0.00168571 0.0)
(-0.101151 0.00144697 0.0)
(-0.101407 0.00120361 0.0)
(-0.101563 0.000954027 0.0)
(-0.101621 0.000696149 0.0)
(-0.101582 0.000427245 0.0)
(-0.101445 0.000143021 0.0)
(-0.101213 -0.0001644 0.0)
(-0.100872 -0.000504597 0.0)
(-0.100431 -0.000879686 0.0)
(-0.0999076 -0.00128257 0.0)
(-0.0993141 -0.00170952 0.0)
(-0.0986634 -0.00215542 0.0)
(-0.0979704 -0.00261145 0.0)
(-0.0972522 -0.00306461 0.0)
(-0.0965293 -0.00349768 0.0)
(-0.0958263 -0.00388925 0.0)
(-0.0951721 -0.00421389 0.0)
(-0.0946007 -0.00444245 0.0)
(-0.0941508 -0.00454263 0.0)
(-0.0938654 -0.00448011 0.0)
(-0.0937904 -0.00422029 0.0)
(-0.0939722 -0.003731 0.0)
(-0.0944523 -0.0029866 0.0)
(-0.0952593 -0.00197369 0.0)
(-0.0964099 -0.00070333 0.0)
(-0.0979304 0.000764278 0.0)
(-0.0995967 0.00230802 0.0)
(-0.101439 0.00386378 0.0)
(-0.103581 0.00541554 0.0)
(-0.106023 0.00689943 0.0)
(-0.108752 0.00823603 0.0)
(-0.111734 0.00937163 0.0)
(-0.114913 0.0102759 0.0)
(-0.118214 0.0109319 0.0)
(-0.121547 0.0113286 0.0)
(-0.12482 0.011459 0.0)
(-0.127948 0.0113206 0.0)
(-0.130851 0.0109186 0.0)
(-0.133468 0.0102685 0.0)
(-0.135753 0.00939884 0.0)
(-0.137676 0.008352 0.0)
(-0.139231 0.00718286 0.0)
(-0.140428 0.0059551 0.0)
(-0.141296 0.00473664 0.0)
(-0.141877 0.00359402 0.0)
(-0.142225 0.00258704 0.0)
(-0.142399 0.00176529 0.0)
(-0.142459 0.00116433 0.0)
(-0.142466 0.000805381 0.0)
(-0.142476 0.000697172 0.0)
(-0.142538 0.000834304 0.0)
(-0.142691 0.00119903 0.0)
(-0.142963 0.00176822 0.0)
(-0.14337 0.00251444 0.0)
(-0.143922 0.00340292 0.0)
(-0.144619 0.00439107 0.0)
(-0.145452 0.00543067 0.0)
(-0.146404 0.00646888 0.0)
(-0.147448 0.00744952 0.0)
(-0.148548 0.00831506 0.0)
(-0.149658 0.00900922 0.0)
(-0.150728 0.00948046 0.0)
(-0.151699 0.00968617 0.0)
(-0.152511 0.00959752 0.0)
(-0.153103 0.00920499 0.0)
(-0.15342 0.0085237 0.0)
(-0.153414 0.00759717 0.0)
(-0.15306 0.00649531 0.0)
(-0.152355 0.00530403 0.0)
(-0.151332 0.00411422 0.0)
(-0.150056 0.00300659 0.0)
(-0.148605 0.00204453 0.0)
(-0.147064 0.00128348 0.0)
(-0.145504 0.0007586 0.0)
(-0.143988 0.000470665 0.0)
(-0.14259 0.000393732 0.0)
(-0.141316 0.000481991 0.0)
(-0.140147 0.000693776 0.0)
(-0.139043 0.000993274 0.0)
(-0.138013 0.00134124 0.0)
(-0.137047 0.00170007 0.0)
(-0.136129 0.00204044 0.0)
(-0.13524 0.00234364 0.0)
(-0.134361 0.00259503 0.0)
(-0.133476 0.00278048 0.0)
(-0.13257 0.00288673 0.0)
(-0.13163 0.00290021 0.0)
(-0.130645 0.00280544 0.0)
(-0.129603 0.00258292 0.0)
(-0.128496 0.00220731 0.0)
(-0.127312 0.00164763 0.0)
(-0.126035 0.000867364 0.0)
(-0.124626 -0.000172181 0.0)
(-0.123185 -0.00152244 0.0)
(-0.121652 -0.00328371 0.0)
(-0.119904 -0.00559192 0.0)
(-0.117842 -0.00862092 0.0)
(-0.115319 -0.0125464 0.0)
(-0.112131 -0.0175704 0.0)
(-0.108002 -0.0238877 0.0)
(-0.102584 -0.0316322 0.0)
(-0.0954707 -0.0407846 0.0)
(-0.0862429 -0.0510076 0.0)
(-0.0745495 -0.0613404 0.0)
(-0.0602137 -0.069644 0.0)
(-0.0434 -0.0716212 0.0)
(-0.0250149 -0.0591452 0.0)
(-0.00726712 -0.0183726 0.0)
(-0.00550871 0.0507881 0.0)
(-0.0104914 0.017908 0.0)
(-0.0136925 0.00149587 0.0)
(-0.0152898 -0.00306129 0.0)
(-0.0160814 -0.00340415 0.0)
(-0.0165722 -0.00269046 0.0)
(-0.0169417 -0.00182737 0.0)
(-0.017275 -0.00103593 0.0)
(-0.017618 -0.000349813 0.0)
(-0.0179986 0.00024367 0.0)
(-0.0184243 0.000759845 0.0)
(-0.0189073 0.00121286 0.0)
(-0.0194561 0.00161936 0.0)
(-0.020076 0.0019917 0.0)
(-0.0207719 0.00234023 0.0)
(-0.0215482 0.00267395 0.0)
(-0.0224092 0.00300087 0.0)
(-0.0233599 0.00332822 0.0)
(-0.0244064 0.00366274 0.0)
(-0.0255559 0.00401101 0.0)
(-0.0268181 0.00437974 0.0)
(-0.0282047 0.00477618 0.0)
(-0.0297308 0.00520858 0.0)
(-0.0314156 0.00568659 0.0)
(-0.0332831 0.00622165 0.0)
(-0.0353627 0.00682649 0.0)
(-0.0376882 0.00751321 0.0)
(-0.0402944 0.00828844 0.0)
(-0.0432091 0.00914475 0.0)
(-0.0464405 0.0100492 0.0)
(-0.0499609 0.010933 0.0)
(-0.0536942 0.0116889 0.0)
(-0.0575115 0.0121832 0.0)
(-0.0612413 0.0122802 0.0)
(-0.0646929 0.0118749 0.0)
(-0.0676858 0.0109196 0.0)
(-0.070078 0.00943822 0.0)
(-0.0717877 0.00752452 0.0)
(-0.0728047 0.00532704 0.0)
(-0.0731901 0.00302525 0.0)
(-0.0730651 0.000801342 0.0)
(-0.0725945 -0.0011872 0.0)
(-0.071944 -0.00282287 0.0)
(-0.0712559 -0.00405452 0.0)
(-0.0706209 -0.004897 0.0)
(-0.0700849 -0.00540662 0.0)
(-0.0696647 -0.00565425 0.0)
(-0.0693594 -0.00570827 0.0)
(-0.0691595 -0.00562583 0.0)
(-0.0690539 -0.00545004 0.0)
(-0.0690331 -0.00521065 0.0)
(-0.0690909 -0.00492624 0.0)
(-0.0692254 -0.00460676 0.0)
(-0.0694387 -0.00425583 0.0)
(-0.0697367 -0.00387283 0.0)
(-0.0701293 -0.00345459 0.0)
(-0.0706294 -0.00299553 0.0)
(-0.0712534 -0.00248703 0.0)
(-0.072019 -0.00191684 0.0)
(-0.0729436 -0.00126737 0.0)
(-0.074046 -0.000528399 0.0)
(-0.0753598 0.000281608 0.0)
(-0.0767673 0.00111314 0.0)
(-0.0781529 0.00192063 0.0)
(-0.0795545 0.00269273 0.0)
(-0.0809878 0.00343627 0.0)
(-0.0824561 0.00414484 0.0)
(-0.0839574 0.00480143 0.0)
(-0.0854875 0.00538691 0.0)
(-0.0870411 0.00588461 0.0)
(-0.0886128 0.00628285 0.0)
(-0.0901958 0.00657597 0.0)
(-0.0917824 0.00676432 0.0)
(-0.0933629 0.00685344 0.0)
(-0.0949265 0.00685269 0.0)
(-0.0964606 0.00677381 0.0)
(-0.0979521 0.00662938 0.0)
(-0.099388 0.00643175 0.0)
(-0.100756 0.00619219 0.0)
(-0.102045 0.00592053 0.0)
(-0.103245 0.00562492 0.0)
(-0.104352 0.00531193 0.0)
(-0.10536 0.00498682 0.0)
(-0.106267 0.00465382 0.0)
(-0.107075 0.00431626 0.0)
(-0.107784 0.00397672 0.0)
(-0.108399 0.0036371 0.0)
(-0.108924 0.00329869 0.0)
(-0.109363 0.00296222 0.0)
(-0.109721 0.00262788 0.0)
(-0.110003 0.00229535 0.0)
(-0.110213 0.00196385 0.0)
(-0.110353 0.0016322 0.0)
(-0.110428 0.00129886 0.0)
(-0.11044 0.000961918 0.0)
(-0.110391 0.000619211 0.0)
(-0.110282 0.000268138 0.0)
(-0.110119 -9.5515e-05 0.0)
(-0.109902 -0.000477762 0.0)
(-0.109646 -0.000880259 0.0)
(-0.109369 -0.00130014 0.0)
(-0.109082 -0.00173482 0.0)
(-0.108796 -0.00218138 0.0)
(-0.108522 -0.00263323 0.0)
(-0.108272 -0.00307913 0.0)
(-0.108062 -0.0035031 0.0)
(-0.107909 -0.00388468 0.0)
(-0.107834 -0.0041992 0.0)
(-0.107859 -0.00441826 0.0)
(-0.108008 -0.0045104 0.0)
(-0.108303 -0.00444228 0.0)
(-0.108768 -0.00418055 0.0)
(-0.109419 -0.00369489 0.0)
(-0.110268 -0.00296221 0.0)
(-0.111314 -0.0019718 0.0)
(-0.112548 -0.000731189 0.0)
(-0.113956 0.000727781 0.0)
(-0.115435 0.00233869 0.0)
(-0.117039 0.00405993 0.0)
(-0.118824 0.00585435 0.0)
(-0.120776 0.00764504 0.0)
(-0.12288 0.00934232 0.0)
(-0.125113 0.0108637 0.0)
(-0.127445 0.0121431 0.0)
(-0.12983 0.0131335 0.0)
(-0.132211 0.013804 0.0)
(-0.134521 0.0141369 0.0)
(-0.136691 0.0141256 0.0)
(-0.138656 0.0137744 0.0)
(-0.140359 0.0130998 0.0)
(-0.141758 0.0121329 0.0)
(-0.142826 0.0109198 0.0)
(-0.143555 0.00952221 0.0)
(-0.143959 0.0080143 0.0)
(-0.144067 0.00647851 0.0)
(-0.143927 0.00499889 0.0)
(-0.143598 0.00365315 0.0)
(-0.143146 0.00250309 0.0)
(-0.142636 0.0015958 0.0)
(-0.142127 0.000961577 0.0)
(-0.141669 0.000616039 0.0)
(-0.141297 0.000563183 0.0)
(-0.141038 0.000788037 0.0)
(-0.1409 0.00125824 0.0)
(-0.140879 0.00193971 0.0)
(-0.140962 0.00279693 0.0)
(-0.14113 0.00378886 0.0)
(-0.141363 0.00486728 0.0)
(-0.141636 0.00597764 0.0)
(-0.14192 0.00706036 0.0)
(-0.14218 0.00805263 0.0)
(-0.14238 0.00889069 0.0)
(-0.142477 0.00951294 0.0)
(-0.142428 0.00986356 0.0)
(-0.142184 0.00989709 0.0)
(-0.141696 0.0095841 0.0)
(-0.140911 0.00891844 0.0)
(-0.139779 0.00792389 0.0)
(-0.138259 0.00665626 0.0)
(-0.136339 0.00519937 0.0)
(-0.134043 0.00365504 0.0)
(-0.131442 0.0021482 0.0)
(-0.12863 0.00083134 0.0)
(-0.125815 -0.000164265 0.0)
(-0.123304 -0.00079511 0.0)
(-0.121194 -0.00110668 0.0)
(-0.119484 -0.00116393 0.0)
(-0.11808 -0.00103799 0.0)
(-0.116909 -0.000792838 0.0)
(-0.115911 -0.000472142 0.0)
(-0.115038 -0.000104388 0.0)
(-0.114205 0.000277415 0.0)
(-0.113341 0.000653713 0.0)
(-0.112436 0.00101091 0.0)
(-0.111516 0.00132805 0.0)
(-0.110579 0.00158055 0.0)
(-0.109618 0.00175209 0.0)
(-0.108628 0.00183189 0.0)
(-0.107604 0.00180914 0.0)
(-0.106546 0.00167095 0.0)
(-0.105458 0.00140112 0.0)
(-0.104344 0.000978931 0.0)
(-0.103208 0.000385004 0.0)
(-0.102074 -0.00040639 0.0)
(-0.10107 -0.0014412 0.0)
(-0.100084 -0.0028169 0.0)
(-0.0990946 -0.004663 0.0)
(-0.0980723 -0.00712919 0.0)
(-0.0969628 -0.0104067 0.0)
(-0.0956697 -0.0147268 0.0)
(-0.0940361 -0.0203548 0.0)
(-0.0918261 -0.0275621 0.0)
(-0.0887122 -0.0365657 0.0)
(-0.0842781 -0.0474194 0.0)
(-0.078037 -0.0598244 0.0)
(-0.0694633 -0.0727903 0.0)
(-0.0580365 -0.0840337 0.0)
(-0.04337 -0.0888977 0.0)
(-0.0258156 -0.0783241 0.0)
(-0.00841999 -0.0346708 0.0)
(-0.00473705 0.0579706 0.0)
(-0.00957914 0.0226771 0.0)
(-0.0128394 0.00393494 0.0)
(-0.0146256 -0.00178323 0.0)
(-0.0156937 -0.00261653 0.0)
(-0.0164564 -0.00211462 0.0)
(-0.0170779 -0.00134358 0.0)
(-0.0176365 -0.000583425 0.0)
(-0.0181761 0.000109072 0.0)
(-0.0187203 0.000729758 0.0)
(-0.0192845 0.00128335 0.0)
(-0.0198862 0.00178668 0.0)
(-0.0205363 0.00225274 0.0)
(-0.0212435 0.00269203 0.0)
(-0.0220155 0.00311384 0.0)
(-0.0228593 0.00352675 0.0)
(-0.0237819 0.00393892 0.0)
(-0.0247905 0.00435825 0.0)
(-0.0258932 0.00479267 0.0)
(-0.0270995 0.00525045 0.0)
(-0.028421 0.00574061 0.0)
(-0.0298718 0.00627342 0.0)
(-0.0314694 0.006861 0.0)
(-0.0332359 0.00751773 0.0)
(-0.0351981 0.00826022 0.0)
(-0.0373876 0.00910571 0.0)
(-0.0398388 0.0100676 0.0)
(-0.0425829 0.0111466 0.0)
(-0.0456384 0.0123177 0.0)
(-0.0489971 0.0135154 0.0)
(-0.0526094 0.0146252 0.0)
(-0.0563764 0.0154895 0.0)
(-0.0601518 0.0159312 0.0)
(-0.0637586 0.0157921 0.0)
(-0.0670157 0.0149722 0.0)
(-0.0697677 0.0134569 0.0)
(-0.0719125 0.0113269 0.0)
(-0.0734187 0.00874654 0.0)
(-0.0743315 0.00593836 0.0)
(-0.0747642 0.00314612 0.0)
(-0.0748751 0.000594267 0.0)
(-0.0748348 -0.00154908 0.0)
(-0.0747869 -0.00319664 0.0)