/*--------------------------------*- C++ -*----------------------------------*\
  =========                 |
  \\      /  F ield         | OpenFOAM: The Open Source CFD Toolbox
   \\    /   O peration     | Website:  https://openfoam.org
    \\  /    A nd           | Version:  11
     \\/     M anipulation  |
\*---------------------------------------------------------------------------*/
FoamFile
{
    format      ascii;
    class       surfaceScalarField;
    location    "2";
    object      phi;
}
// * * * * * * * * * * * * * * * * * * * * * * * * * * * * * * * * * * * * * //

dimensions      [1 0 -1 0 0 0 0];

internalField   nonuniform List<scalar> 
79600
(
-8.77296e-06
8.7533e-06
-7.98311e-06
-7.97652e-07
-4.77553e-06
-3.20967e-06
-1.84842e-06
-2.92836e-06
4.80056e-07
-2.3295e-06
2.29878e-06
-1.81958e-06
3.75309e-06
-1.45484e-06
4.92667e-06
-1.17393e-06
5.84796e-06
-9.21544e-07
6.51004e-06
-6.62301e-07
6.92286e-06
-4.13028e-07
7.1046e-06
-1.81958e-07
7.10852e-06
-4.15868e-09
6.97752e-06
1.30732e-07
6.78348e-06
1.9376e-07
6.55652e-06
2.26658e-07
6.31353e-06
2.42691e-07
6.06572e-06
2.47502e-07
5.82026e-06
2.45145e-07
5.58127e-06
2.38678e-07
5.35097e-06
2.2999e-07
5.13061e-06
2.20051e-07
4.92094e-06
2.09358e-07
4.72212e-06
1.98507e-07
4.53382e-06
1.87986e-07
4.35583e-06
1.77679e-07
4.18796e-06
1.67565e-07
4.02953e-06
1.5812e-07
3.87996e-06
1.49255e-07
3.73902e-06
1.40629e-07
3.60597e-06
1.32741e-07
3.47994e-06
1.25721e-07
3.36075e-06
1.18884e-07
3.24848e-06
1.11964e-07
3.14232e-06
1.05846e-07
3.04126e-06
1.00753e-07
2.94537e-06
9.55868e-08
2.85505e-06
9.00116e-08
2.76948e-06
8.52639e-08
2.68764e-06
8.15266e-08
2.60998e-06
7.73505e-08
2.53708e-06
7.259e-08
2.46756e-06
6.92211e-08
2.40038e-06
6.68644e-08
2.33658e-06
6.34963e-08
2.27743e-06
5.88451e-08
2.22176e-06
5.53566e-08
2.1672e-06
5.42534e-08
2.11365e-06
5.32488e-08
2.06347e-06
4.98686e-08
2.01802e-06
4.51433e-08
1.97484e-06
4.28785e-08
1.93047e-06
4.40611e-08
1.88489e-06
4.52689e-08
1.84113e-06
4.34587e-08
1.80123e-06
3.95924e-08
1.76286e-06
3.8063e-08
1.72169e-06
4.08573e-08
1.67611e-06
4.52794e-08
1.62883e-06
4.69674e-08
1.58341e-06
4.51135e-08
1.54016e-06
4.29456e-08
1.49565e-06
4.41989e-08
1.44604e-06
4.93018e-08
1.39162e-06
5.41176e-08
1.33627e-06
5.50384e-08
1.28436e-06
5.16019e-08
1.23717e-06
4.68873e-08
1.19196e-06
4.49067e-08
1.14481e-06
4.68339e-08
1.09468e-06
4.98318e-08
1.04449e-06
4.98818e-08
9.98724e-07
4.54568e-08
9.60121e-07
3.82959e-08
9.27281e-07
3.25326e-08
8.9548e-07
3.14946e-08
8.59383e-07
3.5789e-08
8.17182e-07
4.18942e-08
7.70911e-07
4.59641e-08
7.2432e-07
4.6284e-08
6.80388e-07
4.36258e-08
6.39241e-07
4.08399e-08
5.98601e-07
4.03329e-08
5.55478e-07
4.28161e-08
5.08915e-07
4.62551e-08
4.6071e-07
4.78981e-08
4.14184e-07
4.62193e-08
3.72911e-07
4.09665e-08
3.38548e-07
3.40558e-08
3.09432e-07
2.88095e-08
2.81092e-07
2.80327e-08
2.47978e-07
3.28069e-08
2.07074e-07
4.0597e-08
1.58796e-07
4.79706e-08
1.0634e-07
5.21491e-08
5.41787e-08
5.18545e-08
6.56669e-09
4.7305e-08
-3.40427e-08
4.03024e-08
-6.78568e-08
3.35072e-08
-9.75021e-08
2.93383e-08
-1.27522e-07
2.97127e-08
-1.62041e-07
3.42118e-08
-2.03018e-07
4.067e-08
-2.5047e-07
4.71453e-08
-3.01724e-07
5.09474e-08
-3.53675e-07
5.16434e-08
-4.03258e-07
4.92756e-08
-4.48434e-07
4.48698e-08
-4.88415e-07
3.96741e-08
-5.24164e-07
3.54412e-08
-5.58069e-07
3.35982e-08
-5.93058e-07
3.46821e-08
-6.31699e-07
3.83341e-08
-6.75276e-07
4.32703e-08
-7.23764e-07
4.81807e-08
-7.76166e-07
5.20948e-08
-8.30669e-07
5.41958e-08
-8.85323e-07
5.43466e-08
-9.38381e-07
5.27507e-08
-9.88606e-07
4.99184e-08
-1.03548e-06
4.65698e-08
-1.07925e-06
4.34613e-08
-1.12102e-06
4.14565e-08
-1.16225e-06
4.09316e-08
-1.20468e-06
4.21148e-08
-1.24974e-06
4.47574e-08
-1.29847e-06
4.84201e-08
-1.35132e-06
5.25415e-08
-1.40825e-06
5.66256e-08
-1.46877e-06
6.02157e-08
-1.53213e-06
6.30501e-08
-1.5974e-06
6.4963e-08
-1.66355e-06
6.58432e-08
-1.72959e-06
6.57321e-08
-1.79468e-06
6.47813e-08
-1.85817e-06
6.31882e-08
-1.91967e-06
6.11887e-08
-1.97908e-06
5.90994e-08
-2.03644e-06
5.70597e-08
-2.09205e-06
5.52957e-08
-2.14627e-06
5.39143e-08
-2.19957e-06
5.29909e-08
-2.25244e-06
5.25661e-08
-2.3054e-06
5.26496e-08
-2.35894e-06
5.32373e-08
-2.41355e-06
5.43005e-08
-2.46964e-06
5.57877e-08
-2.52756e-06
5.76138e-08
-2.58757e-06
5.97014e-08
-2.64988e-06
6.19952e-08
-2.71467e-06
6.44899e-08
-2.78221e-06
6.72296e-08
-2.85274e-06
7.02255e-08
-2.92649e-06
7.34445e-08
-3.00365e-06
7.68501e-08
-3.08438e-06
8.04218e-08
-3.16885e-06
8.41566e-08
-3.25722e-06
8.80706e-08
-3.34979e-06
9.22612e-08
-3.44684e-06
9.67359e-08
-3.54866e-06
1.0151e-07
-3.65554e-06
1.06578e-07
-3.76785e-06
1.12001e-07
-3.88599e-06
1.17828e-07
-4.01048e-06
1.24187e-07
-4.14189e-06
1.31098e-07
-4.28074e-06
1.3854e-07
-4.42763e-06
1.46584e-07
-4.58323e-06
1.55288e-07
-4.74827e-06
1.64727e-07
-4.9236e-06
1.75021e-07
-5.11015e-06
1.86246e-07
-5.30888e-06
1.98421e-07
-5.52082e-06
2.11626e-07
-5.74707e-06
2.25942e-07
-5.98881e-06
2.41429e-07
-6.2472e-06
2.58076e-07
-6.52334e-06
2.75829e-07
-6.81826e-06
2.94606e-07
-7.13284e-06
3.14262e-07
-7.46762e-06
3.34469e-07
-7.82254e-06
3.54605e-07
-8.19645e-06
3.73601e-07
-8.58645e-06
3.89685e-07
-8.98671e-06
3.99941e-07
-9.38674e-06
3.99711e-07
-9.76909e-06
3.82005e-07
-1.01067e-05
3.37213e-07
-1.0361e-05
2.53942e-07
-1.04803e-05
1.18733e-07
-1.04203e-05
-6.06855e-08
-1.02063e-05
-2.15083e-07
-9.89845e-06
-3.09469e-07
-9.57252e-06
-3.28694e-07
-9.30019e-06
-2.77129e-07
-9.12972e-06
-1.78769e-07
-9.01136e-06
-1.31778e-07
-8.53823e-06
-4.91632e-07
-6.33549e-06
-2.22222e-06
-6.3485e-06
-6.84993e-06
1.55935e-05
-8.28369e-06
6.37857e-07
-7.4282e-06
-4.06365e-06
-6.05225e-06
-4.30411e-06
-4.64507e-06
-3.73688e-06
-3.32446e-06
-3.14042e-06
-2.14156e-06
-2.63796e-06
-1.1068e-06
-2.20892e-06
-2.14289e-07
-1.81428e-06
5.35267e-07
-1.41211e-06
1.13184e-06
-1.00988e-06
1.58014e-06
-6.30545e-07
1.8756e-06
-2.99935e-07
2.03636e-06
-3.03658e-08
2.09083e-06
1.38941e-07
2.07108e-06
2.46051e-07
2.00423e-06
3.09181e-07
1.90808e-06
3.43284e-07
1.7949e-06
3.57963e-07
1.67272e-06
3.60493e-07
1.54703e-06
3.5531e-07
1.42157e-06
3.45145e-07
1.29884e-06
3.31721e-07
1.18048e-06
3.16504e-07
1.06743e-06
3.00663e-07
9.60315e-07
2.84431e-07
8.59481e-07
2.68033e-07
7.64977e-07
2.52257e-07
6.76679e-07
2.37187e-07
5.94373e-07
2.22569e-07
5.17903e-07
2.08845e-07
4.46923e-07
1.96336e-07
3.81274e-07
1.84167e-07
3.20678e-07
1.72194e-07
2.64836e-07
1.61322e-07
2.13559e-07
1.51664e-07
1.66643e-07
1.42137e-07
1.2347e-07
1.32819e-07
8.37618e-08
1.24607e-07
4.79234e-08
1.17e-07
1.5932e-08
1.08977e-07
-1.33562e-08
1.01513e-07
-4.02e-08
9.56997e-08
-6.44055e-08
9.07049e-08
-8.52856e-08
8.40115e-08
-1.02942e-07
7.61364e-08
-1.18423e-07
7.04723e-08
-1.3259e-07
6.80561e-08
-1.44952e-07
6.5246e-08
-1.54528e-07
5.90796e-08
-1.61551e-07
5.18012e-08
-1.6731e-07
4.8273e-08
-1.73028e-07
4.94139e-08
-1.78501e-07
5.03774e-08
-1.82618e-07
4.72111e-08
-1.85129e-07
4.17383e-08
-1.87095e-07
3.9664e-08
-1.90288e-07
4.36852e-08
-1.95274e-07
4.99011e-08
-2.01267e-07
5.25959e-08
-2.06892e-07
5.03736e-08
-2.12158e-07
4.78471e-08
-2.18441e-07
5.01177e-08
-2.27147e-07
5.76427e-08
-2.38256e-07
6.48626e-08
-2.50054e-07
6.64715e-08
-2.60592e-07
6.17759e-08
-2.69343e-07
5.52726e-08
-2.77082e-07
5.22812e-08
-2.85228e-07
5.46151e-08
-2.94085e-07
5.83243e-08
-3.02552e-07
5.79854e-08
-3.08573e-07
5.11131e-08
-3.11141e-07
4.04989e-08
-3.10615e-07
3.16422e-08
-3.09295e-07
2.98101e-08
-3.09548e-07
3.56766e-08
-3.126e-07
4.4582e-08
-3.17851e-07
5.08511e-08
-3.2357e-07
5.16389e-08
-3.28575e-07
4.8266e-08
-3.32619e-07
4.45191e-08
-3.36509e-07
4.38583e-08
-3.4133e-07
4.72732e-08
-3.47422e-07
5.19825e-08
-3.54112e-07
5.42236e-08
-3.5963e-07
5.13734e-08
-3.62372e-07
4.33436e-08
-3.61602e-07
3.29222e-08
-3.58398e-07
2.52403e-08
-3.54842e-07
2.41118e-08
-3.53383e-07
3.09836e-08
-3.55973e-07
4.28221e-08
-3.6244e-07
5.40737e-08
-3.71192e-07
6.05373e-08
-3.79953e-07
6.02513e-08
-3.86574e-07
5.35612e-08
-3.89544e-07
4.29087e-08
-3.88651e-07
3.2249e-08
-3.85667e-07
2.599e-08
-3.82666e-07
2.63469e-08
-3.81975e-07
3.31564e-08
-3.8517e-07
4.35011e-08
-3.92182e-07
5.37926e-08
-4.01344e-07
5.97451e-08
-4.10872e-07
6.08071e-08
-4.19147e-07
5.71863e-08
-4.25028e-07
5.0387e-08
-4.28157e-07
4.24386e-08
-4.29028e-07
3.59473e-08
-4.29002e-07
3.32074e-08
-4.29803e-07
3.51185e-08
-4.32862e-07
4.10285e-08
-4.38773e-07
4.88171e-08
-4.47626e-07
5.66691e-08
-4.58766e-07
6.28703e-08
-4.712e-07
6.62659e-08
-4.83791e-07
6.6573e-08
-4.95546e-07
6.41408e-08
-5.05742e-07
5.97504e-08
-5.14218e-07
5.46808e-08
-5.21234e-07
5.01136e-08
-5.27341e-07
4.71982e-08
-5.33454e-07
4.66804e-08
-5.40501e-07
4.87972e-08
-5.49393e-07
5.32849e-08
-5.60764e-07
5.9426e-08
-5.74938e-07
6.63508e-08
-5.91894e-07
7.32166e-08
-6.11289e-07
7.92467e-08
-6.32607e-07
8.40028e-08
-6.55157e-07
8.71485e-08
-6.78265e-07
8.85864e-08
-7.01273e-07
8.83759e-08
-7.2362e-07
8.67639e-08
-7.44901e-07
8.41041e-08
-7.64943e-07
8.08664e-08
-7.83616e-07
7.74079e-08
-8.00977e-07
7.40555e-08
-8.1723e-07
7.1184e-08
-8.32683e-07
6.90027e-08
-8.47685e-07
6.76281e-08
-8.62602e-07
6.71182e-08
-8.77815e-07
6.74983e-08
-8.93703e-07
6.87604e-08
-9.10607e-07
7.08396e-08
-9.28861e-07
7.36761e-08
-9.48742e-07
7.71301e-08
-9.70473e-07
8.1067e-08
-9.94253e-07
8.541e-08
-1.02027e-06
9.01457e-08
-1.04873e-06
9.53172e-08
-1.07982e-06
1.0095e-07
-1.11379e-06
1.07052e-07
-1.15085e-06
1.1355e-07
-1.19118e-06
1.20382e-07
-1.23494e-06
1.2755e-07
-1.28234e-06
1.35108e-07
-1.3336e-06
1.43154e-07
-1.38895e-06
1.51724e-07
-1.4486e-06
1.60794e-07
-1.51288e-06
1.70493e-07
-1.58216e-06
1.80909e-07
-1.65685e-06
1.92153e-07
-1.7374e-06
2.04368e-07
-1.82423e-06
2.17563e-07
-1.91787e-06
2.31819e-07
-2.01885e-06
2.4719e-07
-2.12772e-06
2.6379e-07
-2.24512e-06
2.81762e-07
-2.37172e-06
3.0126e-07
-2.50815e-06
3.22304e-07
-2.65518e-06
3.45084e-07
-2.81357e-06
3.69644e-07
-2.98402e-06
3.96033e-07
-3.1672e-06
4.24236e-07
-3.36358e-06
4.54082e-07
-3.57337e-06
4.85254e-07
-3.79645e-06
5.17315e-07
-4.03211e-06
5.49555e-07
-4.27881e-06
5.80795e-07
-4.53372e-06
6.09147e-07
-4.79224e-06
6.31757e-07
-5.0475e-06
6.44578e-07
-5.28964e-06
6.41707e-07
-5.50516e-06
6.14861e-07
-5.67646e-06
5.52942e-07
-5.78047e-06
4.40842e-07
-5.78416e-06
2.57243e-07
-5.66768e-06
1.83761e-09
-5.42345e-06
-3.05389e-07
-5.09239e-06
-5.4674e-07
-4.71466e-06
-6.88013e-07
-4.3203e-06
-7.24282e-07
-3.94851e-06
-6.50984e-07
-3.67459e-06
-4.56579e-07
-3.61684e-06
-1.97633e-07
-3.71944e-06
-4.04972e-07
-3.13187e-06
-2.83232e-06
-9.49558e-06
-5.52476e-06
2.11178e-05
-8.08396e-06
3.20441e-06
-8.746e-06
-3.39915e-06
-8.60628e-06
-4.44353e-06
-8.16364e-06
-4.17973e-06
-7.63758e-06
-3.66678e-06
-7.12412e-06
-3.15174e-06
-6.6544e-06
-2.67898e-06
-6.22975e-06
-2.23928e-06
-5.82798e-06
-1.81424e-06
-5.43428e-06
-1.40394e-06
-5.0457e-06
-1.0195e-06
-4.67082e-06
-6.752e-07
-4.31884e-06
-3.82735e-07
-4.02584e-06
-1.54459e-07
-3.79357e-06
1.33814e-08
-3.61678e-06
1.31982e-07
-3.48118e-06
2.07282e-07
-3.37589e-06
2.52265e-07
-3.2934e-06
2.7759e-07
-3.22805e-06
2.89551e-07
-3.17545e-06
2.92144e-07
-3.13234e-06
2.88202e-07
-3.09614e-06
2.79893e-07
-3.06472e-06
2.68834e-07
-3.03669e-06
2.55989e-07
-3.01113e-06
2.42069e-07
-2.98709e-06
2.27808e-07
-2.96385e-06
2.13545e-07
-2.94118e-06
1.99488e-07
-2.91874e-06
1.85994e-07
-2.89601e-06
1.73202e-07
-2.8729e-06
1.6065e-07
-2.84955e-06
1.48439e-07
-2.82573e-06
1.37099e-07
-2.80121e-06
1.26736e-07
-2.77626e-06
1.16775e-07
-2.75109e-06
1.07243e-07
-2.7254e-06
9.8515e-08
-2.69897e-06
9.01677e-08
-2.67212e-06
8.17173e-08
-2.64489e-06
7.38743e-08
-2.61695e-06
6.73569e-08
-2.58799e-06
6.13445e-08
-2.55866e-06
5.42765e-08
-2.52969e-06
4.67617e-08
-2.50062e-06
4.09933e-08
-2.47042e-06
3.74471e-08
-2.43914e-06
3.35673e-08
-2.4079e-06
2.7431e-08
-2.37733e-06
2.08231e-08
-2.34663e-06
1.71724e-08
-2.31462e-06
1.70002e-08
-2.28135e-06
1.67032e-08
-2.24802e-06
1.34757e-08
-2.21554e-06
8.85575e-09
-2.18352e-06
7.23801e-09
-2.15085e-06
1.06084e-08
-2.11673e-06
1.53798e-08
-2.08189e-06
1.73468e-08
-2.04765e-06
1.57308e-08
-2.01455e-06
1.43447e-08
-1.98189e-06
1.70495e-08
-1.94825e-06
2.36067e-08
-1.91336e-06
2.95607e-08
-1.87811e-06
3.08166e-08
-1.84373e-06
2.69958e-08
-1.81065e-06
2.17825e-08
-1.77819e-06
1.94178e-08
-1.74517e-06
2.11921e-08
-1.71103e-06
2.37829e-08
-1.67633e-06
2.28825e-08
-1.64211e-06
1.64886e-08
-1.6087e-06
6.68591e-09
-1.57624e-06
-1.22861e-09
-1.54446e-06
-2.36905e-09
-1.51046e-06
1.26937e-09
-1.47555e-06
9.2726e-09
-1.43974e-06
1.46296e-08
-1.40377e-06
1.52678e-08
-1.36832e-06
1.24168e-08
-1.33335e-06
9.14054e-09
-1.29853e-06
8.62889e-09
-1.26332e-06
1.16668e-08
-1.22744e-06
1.56902e-08
-1.19115e-06
1.75366e-08
-1.15489e-06
1.47047e-08
-1.11889e-06
6.94209e-09
-1.084e-06
-2.37129e-09
-1.05174e-06
-7.42022e-09
-1.01971e-06
-8.32434e-09
-9.85164e-07
-3.96874e-09
-9.48159e-07
5.41246e-09
-9.10712e-07
1.62225e-08
-8.72909e-07
2.23304e-08
-8.35372e-07
2.231e-08
-7.9869e-07
1.64747e-08
-7.6267e-07
6.48493e-09
-7.28116e-07
-2.70892e-09
-6.95742e-07
-6.78871e-09
-6.63185e-07
-6.61362e-09
-6.2815e-07
-2.28296e-09
-5.92011e-07
6.95779e-09
-5.55577e-07
1.69545e-08
-5.18792e-07
2.2555e-08
-4.82178e-07
2.37889e-08
-4.46124e-07
2.07283e-08
-4.10914e-07
1.47727e-08
-3.76585e-07
7.70612e-09
-3.42589e-07
1.5469e-09
-3.09438e-07
-3.47589e-10
-2.75993e-07
1.26908e-09
-2.42677e-07
7.30842e-09
-2.09068e-07
1.48033e-08
-1.74879e-07
2.20757e-08
-1.40254e-07
2.78414e-08
-1.05558e-07
3.11648e-08
-7.10849e-08
3.16955e-08
-3.70651e-08
2.97166e-08
-3.73036e-09
2.60112e-08
2.8926e-08
2.16201e-08
6.09208e-08
1.77144e-08
9.23337e-08
1.53809e-08
1.23223e-07
1.53866e-08
1.53681e-07
1.79343e-08
1.83844e-07
2.27183e-08
2.13846e-07
2.90186e-08
2.43764e-07
3.60281e-08
2.73625e-07
4.29513e-08
3.0354e-07
4.89263e-08
3.33536e-07
5.36019e-08
3.63537e-07
5.67432e-08
3.93437e-07
5.82808e-08
4.23167e-07
5.82413e-08
4.52666e-07
5.68594e-08
4.81873e-07
5.44923e-08
5.10714e-07
5.16202e-08
5.39082e-07
4.86352e-08
5.67004e-07
4.57287e-08
5.94441e-07
4.33417e-08
6.21348e-07
4.1691e-08
6.47708e-07
4.08635e-08
6.73523e-07
4.0898e-08
6.98788e-07
4.18278e-08
7.23496e-07
4.36475e-08
7.47726e-07
4.62048e-08
7.71349e-07
4.96482e-08
7.94259e-07
5.38147e-08
8.16372e-07
5.85486e-08
8.37616e-07
6.37605e-08
8.57933e-07
6.94234e-08
8.77288e-07
7.55572e-08
8.95641e-07
8.21912e-08
9.12873e-07
8.94143e-08
9.28785e-07
9.72319e-08
9.43261e-07
1.05499e-07
9.5621e-07
1.14195e-07
9.67543e-07
1.23368e-07
9.77242e-07
1.33049e-07
9.85242e-07
1.43317e-07
9.91417e-07
1.54212e-07
9.95622e-07
1.65881e-07
9.9769e-07
1.78434e-07
9.97422e-07
1.92013e-07
9.94651e-07
2.06731e-07
9.89221e-07
2.22585e-07
9.80979e-07
2.39652e-07
9.69773e-07
2.57988e-07
9.55435e-07
2.77718e-07
9.37794e-07
2.98994e-07
9.16695e-07
3.21948e-07
8.92008e-07
3.46581e-07
8.63659e-07
3.73022e-07
8.31638e-07
4.01254e-07
7.96031e-07
4.31227e-07
7.57096e-07
4.62759e-07
7.1531e-07
4.95455e-07
6.71455e-07
5.28695e-07
6.26749e-07
5.61607e-07
5.83011e-07
5.92879e-07
5.42845e-07
6.20546e-07
5.09838e-07
6.41739e-07
4.88794e-07
6.52385e-07
4.85957e-07
6.47e-07
5.09005e-07
6.18244e-07
5.66535e-07
5.56918e-07
6.66507e-07
4.52558e-07
8.12624e-07
2.94314e-07
9.98678e-07
7.0781e-08
1.19173e-06
-1.91624e-07
1.32677e-06
-4.40836e-07
1.42148e-06
-6.41885e-07
1.50454e-06
-7.71538e-07
1.59913e-06
-8.19418e-07
1.71297e-06
-7.65516e-07
1.81309e-06
-5.57784e-07
1.76291e-06
-1.49684e-07
1.18528e-06
1.669e-07
5.55768e-08
-1.71662e-06
-9.46011e-06
-4.62614e-06
2.57497e-05
-7.37823e-06
5.96528e-06
-8.52646e-06
-2.24835e-06
-8.87112e-06
-4.09864e-06
-8.85736e-06
-4.19377e-06
-8.70116e-06
-3.82334e-06
-8.50128e-06
-3.35199e-06
-8.29571e-06
-2.88493e-06
-8.09157e-06
-2.44381e-06
-7.87874e-06
-2.02746e-06
-7.64659e-06
-1.63648e-06
-7.39e-06
-1.27649e-06
-7.11119e-06
-9.54413e-07
-6.81813e-06
-6.76196e-07
-6.52683e-06
-4.46171e-07
-6.24988e-06
-2.63969e-07
-5.995e-06
-1.23311e-07
-5.77197e-06
-1.61595e-08
-5.57139e-06
5.12635e-08
-5.39366e-06
9.94489e-08
-5.23597e-06
1.31452e-07
-5.09493e-06
1.50688e-07
-4.96785e-06
1.60703e-07
-4.85299e-06
1.6462e-07
-4.74829e-06
1.63722e-07
-4.65208e-06
1.59361e-07
-4.56307e-06
1.5265e-07
-4.48011e-06
1.44434e-07
-4.40225e-06
1.35265e-07
-4.32876e-06
1.25589e-07
-4.25897e-06
1.15788e-07
-4.19219e-06
1.0601e-07
-4.12818e-06
9.6236e-08
-4.06676e-06
8.6605e-08
-4.0074e-06
7.73286e-08
-3.94954e-06
6.84661e-08
-3.8931e-06
5.9917e-08
-3.83802e-06
5.17584e-08
-3.78398e-06
4.40576e-08
-3.73086e-06
3.66372e-08
-3.67895e-06
2.93994e-08
-3.62813e-06
2.26475e-08
-3.57777e-06
1.65895e-08
-3.52776e-06
1.09207e-08
-3.47928e-06
5.38732e-09
-3.43286e-06
-6.62742e-11
-3.38578e-06
-6.49465e-09
-3.33751e-06
-1.12298e-08
-3.28874e-06
-1.56135e-08
-3.24103e-06
-2.06877e-08
-3.19509e-06
-2.55276e-08
-3.14968e-06
-2.86483e-08
-3.10301e-06
-3.0074e-08
-3.05521e-06
-3.15064e-08
-3.00809e-06
-3.4052e-08
-2.963e-06
-3.66382e-08
-2.91894e-06
-3.72369e-08
-2.87341e-06
-3.53242e-08
-2.82566e-06
-3.2781e-08
-2.77702e-06
-3.17029e-08
-2.7295e-06
-3.21952e-08
-2.68347e-06
-3.20946e-08
-2.63724e-06
-2.95889e-08
-2.58882e-06
-2.52255e-08
-2.53806e-06
-2.16045e-08
-2.48657e-06
-2.10845e-08
-2.43638e-06
-2.3605e-08
-2.38822e-06
-2.67877e-08
-2.34098e-06
-2.82267e-08
-2.29264e-06
-2.75569e-08
-2.2424e-06
-2.68671e-08
-2.19124e-06
-2.86821e-08
-2.14132e-06
-3.38419e-08
-2.09443e-06
-4.0608e-08
-2.04997e-06
-4.60967e-08
-2.00542e-06
-4.73309e-08
-1.96016e-06
-4.43999e-08
-1.91153e-06
-3.97576e-08
-1.86086e-06
-3.64576e-08
-1.80999e-06
-3.60069e-08
-1.76034e-06
-3.76394e-08
-1.71212e-06
-3.94865e-08
-1.6642e-06
-3.97017e-08
-1.61493e-06
-3.80157e-08
-1.56379e-06
-3.58561e-08
-1.51149e-06
-3.51738e-08
-1.4596e-06
-3.7588e-08
-1.41022e-06
-4.28478e-08
-1.36362e-06
-4.93819e-08
-1.31734e-06
-5.41071e-08
-1.27136e-06
-5.47077e-08
-1.22515e-06
-5.05871e-08
-1.17668e-06
-4.34642e-08
-1.12418e-06
-3.66868e-08
-1.06973e-06
-3.25283e-08
-1.01527e-06
-3.25549e-08
-9.62664e-07
-3.6544e-08
-9.13609e-07
-4.29781e-08
-8.67096e-07
-4.96291e-08
-8.20675e-07
-5.36176e-08
-7.74314e-07
-5.33823e-08
-7.27941e-07
-4.90632e-08
-6.79023e-07
-4.2368e-08
-6.26816e-07
-3.56612e-08
-5.73169e-07
-3.15009e-08
-5.19426e-07
-3.03622e-08
-4.66808e-07
-3.22983e-08
-4.16147e-07
-3.6297e-08
-3.67876e-07
-4.09725e-08
-3.21917e-07
-4.48194e-08
-2.76366e-07
-4.63068e-08
-2.30815e-07
-4.46898e-08
-1.83603e-07
-4.03111e-08
-1.34498e-07
-3.47104e-08
-8.38584e-08
-2.89722e-08
-3.21113e-08
-2.43145e-08
1.99927e-08
-2.13481e-08
7.17437e-08
-2.04643e-08
1.22539e-07
-2.14876e-08
1.71958e-07
-2.38163e-08
2.19819e-07
-2.66501e-08
2.66219e-07
-2.9094e-08
3.11543e-07
-3.03515e-08
3.56411e-07
-2.98893e-08
4.0146e-07
-2.75236e-08
4.47218e-07
-2.34477e-08
4.93945e-07
-1.81174e-08
5.41625e-07
-1.20607e-08
5.89707e-07
-5.53998e-09
6.37866e-07
3.57711e-10
6.86977e-07
4.0815e-09
7.36778e-07
6.53177e-09
7.86584e-07
8.06512e-09
8.35905e-07
8.51049e-09
8.84383e-07
7.97198e-09
9.31767e-07
6.69844e-09
9.7798e-07
4.99801e-09
1.02282e-06
3.38036e-09
1.06687e-06
1.27118e-09
1.11014e-06
-3.30673e-10
1.15271e-06
-1.29017e-09
1.19464e-06
-1.48079e-09
1.23595e-06
-8.1561e-10
1.27661e-06
7.50672e-10
1.31654e-06
3.31571e-09
1.35636e-06
5.97186e-09
1.39608e-06
9.51914e-09
1.4357e-06
1.37898e-08
1.47517e-06
1.86672e-08
1.51445e-06
2.40657e-08
1.55352e-06
2.99475e-08
1.59234e-06
3.63293e-08
1.63078e-06
4.33376e-08
1.66868e-06
5.11056e-08
1.70594e-06
5.95583e-08
1.74277e-06
6.82637e-08
1.7791e-06
7.74471e-08
1.81489e-06
8.71724e-08
1.85021e-06
9.73123e-08
1.88516e-06
1.07958e-07
1.9197e-06
1.19256e-07
1.95384e-06
1.31336e-07
1.98751e-06
1.44343e-07
2.02069e-06
1.58427e-07
2.0534e-06
1.73607e-07
2.08571e-06
1.89854e-07
2.11777e-06
2.07184e-07
2.14967e-06
2.25669e-07
2.18155e-06
2.45428e-07
2.21356e-06
2.66574e-07
2.24591e-06
2.89175e-07
2.27884e-06
3.13237e-07
2.3127e-06
3.38739e-07
2.34796e-06
3.65582e-07
2.3852e-06
3.9357e-07
2.42518e-06
4.22355e-07
2.46884e-06
4.51377e-07
2.51729e-06
4.79821e-07
2.57195e-06
5.06534e-07
2.63452e-06
5.29886e-07
2.70703e-06
5.47604e-07
2.79176e-06
5.56586e-07
2.891e-06
5.52727e-07
3.00676e-06
5.30813e-07
3.14003e-06
4.84556e-07
3.28934e-06
4.07181e-07
3.44818e-06
2.93299e-07
3.59872e-06
1.43358e-07
3.70443e-06
-3.53462e-08
3.75255e-06
-2.40165e-07
3.74485e-06
-4.33545e-07
3.70252e-06
-5.99958e-07
3.65236e-06
-7.21799e-07
3.61438e-06
-7.81852e-07
3.59185e-06
-7.43442e-07
3.54603e-06
-5.12524e-07
3.30818e-06
8.70721e-08
2.56343e-06
9.08307e-07
9.98551e-07
-1.61994e-07
-8.47921e-06
-3.96492e-06
2.97247e-05
-6.60689e-06
8.61711e-06
-7.91337e-06
-9.39076e-07
-8.44438e-06
-3.56738e-06
-8.61201e-06
-4.02644e-06
-8.61688e-06
-3.81884e-06
-8.54951e-06
-3.41975e-06
-8.44733e-06
-2.98749e-06
-8.32209e-06
-2.56944e-06
-8.17349e-06
-2.17645e-06
-7.9989e-06
-1.81146e-06
-7.79835e-06
-1.47744e-06
-7.57533e-06
-1.17783e-06
-7.3362e-06
-9.15725e-07
-7.08982e-06
-6.92948e-07
-6.84536e-06
-5.08825e-07
-6.60842e-06
-3.60652e-07
-6.38061e-06
-2.44373e-07
-6.17258e-06
-1.57166e-07
-5.98076e-06
-9.27731e-08
-5.80365e-06
-4.60643e-08
-5.63956e-06
-1.38051e-08
-5.48968e-06
1.04192e-08
-5.35265e-06
2.7185e-08
-5.22604e-06
3.67121e-08
-5.10851e-06
4.14272e-08
-4.99896e-06
4.26993e-08
-4.89643e-06
4.15072e-08
-4.80012e-06
3.85454e-08
-4.70928e-06
3.43495e-08
-4.62322e-06
2.93326e-08
-4.54133e-06
2.37143e-08
-4.46307e-06
1.75715e-08
-4.38784e-06
1.09817e-08
-4.31429e-06
3.3774e-09
-4.24325e-06
-2.97389e-09
-4.17565e-06
-8.09177e-09
-4.1106e-06
-1.36886e-08
-4.04758e-06
-1.9362e-08
-3.9863e-06
-2.50446e-08
-3.92659e-06
-3.07065e-08
-3.8682e-06
-3.61418e-08
-3.8108e-06
-4.12092e-08
-3.75418e-06
-4.61002e-08
-3.69814e-06
-5.1054e-08
-3.64276e-06
-5.58391e-08
-3.58951e-06
-6.01427e-08
-3.53718e-06
-6.39647e-08
-3.48551e-06
-6.76809e-08
-3.43503e-06
-7.15676e-08
-3.38572e-06
-7.52338e-08
-3.33673e-06
-7.80355e-08
-3.28727e-06
-7.99327e-08
-3.23763e-06
-8.15486e-08
-3.18874e-06
-8.33373e-08
-3.14088e-06
-8.48972e-08
-3.09308e-06
-8.54315e-08
-3.04406e-06
-8.47429e-08
-2.99361e-06
-8.36317e-08
-2.94273e-06
-8.29816e-08
-2.89253e-06
-8.27931e-08
-2.84281e-06
-8.22177e-08
-2.79221e-06
-8.05866e-08
-2.73953e-06
-7.83031e-08
-2.68497e-06
-7.65668e-08
-2.63006e-06
-7.63923e-08
-2.57639e-06
-7.7671e-08
-2.52423e-06
-7.93402e-08
-2.47251e-06
-8.03515e-08
-2.41983e-06
-8.06334e-08
-2.36589e-06
-8.12049e-08
-2.31183e-06
-8.31461e-08
-2.25941e-06
-8.666e-08
-2.20964e-06
-9.07703e-08
-2.16227e-06
-9.38715e-08
-2.1152e-06
-9.47946e-08
-2.06617e-06
-9.38301e-08
-2.01446e-06
-9.18599e-08
-1.96092e-06
-9.04024e-08
-1.90703e-06
-9.02985e-08
-1.85392e-06
-9.11475e-08
-1.80173e-06
-9.20743e-08
-1.7496e-06
-9.22225e-08
-1.69644e-06
-9.15746e-08
-1.64184e-06
-9.08566e-08
-1.58634e-06
-9.107e-08
-1.53138e-06
-9.2951e-08
-1.47842e-06
-9.6204e-08
-1.42847e-06
-9.97277e-08
-1.38085e-06
-1.02129e-07
-1.33354e-06
-1.02417e-07
-1.28411e-06
-1.00416e-07
-1.23109e-06
-9.68769e-08
-1.17503e-06
-9.31474e-08
-1.11714e-06
-9.0821e-08
-1.05925e-06
-9.08422e-08
-1.00312e-06
-9.30717e-08
-9.4988e-07
-9.6617e-08
-8.99926e-07
-9.99813e-08
-8.52038e-07
-1.01904e-07
-8.04142e-07
-1.01676e-07
-7.54221e-07
-9.93827e-08
-7.01288e-07
-9.56986e-08
-6.45624e-07
-9.1724e-08
-5.88533e-07
-8.89911e-08
-5.31296e-07
-8.79974e-08
-4.75236e-07
-8.87569e-08
-4.21168e-07
-9.07636e-08
-3.69354e-07
-9.31845e-08
-3.19617e-07
-9.49548e-08
-2.70971e-07
-9.53516e-08
-2.21979e-07
-9.40799e-08
-1.71469e-07
-9.12195e-08
-1.19167e-07
-8.74111e-08
-6.51042e-08
-8.34337e-08
-9.79017e-09
-8.00273e-08
4.61515e-08
-7.76885e-08
1.01879e-07
-7.65903e-08
1.56627e-07
-7.66346e-08
2.09883e-07
-7.74714e-08
2.6144e-07
-7.86051e-08
3.11422e-07
-7.94753e-08
3.6024e-07
-7.95683e-08
4.08476e-07
-7.85237e-08
4.56764e-07
-7.62105e-08
5.05663e-07
-7.27447e-08
5.55575e-07
-6.84289e-08
6.0678e-07
-6.36646e-08
6.59736e-07
-5.88948e-08
7.14346e-07
-5.46511e-08
7.69153e-07
-5.1124e-08
8.2367e-07
-4.83849e-08
8.77848e-07
-4.65121e-08
9.31473e-07
-4.55134e-08
9.84324e-07
-4.52788e-08
1.03624e-06
-4.56136e-08
1.08711e-06
-4.62719e-08
1.13705e-06
-4.69639e-08
1.18556e-06
-4.76401e-08
1.23285e-06
-4.80184e-08
1.2791e-06
-4.79323e-08
1.32452e-06
-4.73043e-08
1.36939e-06
-4.60865e-08
1.41397e-06
-4.42243e-08
1.4586e-06
-4.17117e-08
1.5028e-06
-3.8629e-08
1.54672e-06
-3.48022e-08
1.59045e-06
-3.03366e-08
1.63404e-06
-2.53201e-08
1.67755e-06
-1.98421e-08
1.72112e-06
-1.40276e-08
1.76519e-06
-8.13467e-09
1.81045e-06
-2.32282e-09
1.85609e-06
5.0641e-09
1.90038e-06
1.487e-08
1.94428e-06
2.39577e-08
1.98798e-06
3.33527e-08
2.03173e-06
4.30137e-08
2.07592e-06
5.27202e-08
2.12035e-06
6.31309e-08
2.16496e-06
7.42498e-08
2.20979e-06
8.61011e-08
2.25491e-06
9.88213e-08
2.30028e-06
1.12658e-07
2.34595e-06
1.27531e-07
2.39209e-06
1.43314e-07
2.43894e-06
1.59927e-07
2.48676e-06
1.7745e-07
2.53577e-06
1.96015e-07
2.58624e-06
2.15701e-07
2.63848e-06
2.36534e-07
2.69284e-06
2.58474e-07
2.74977e-06
2.81405e-07
2.80982e-06
3.05123e-07
2.87366e-06
3.29326e-07
2.94204e-06
3.53562e-07
3.01583e-06
3.77185e-07
3.09594e-06
3.99299e-07
3.18338e-06
4.18693e-07
3.27911e-06
4.3374e-07
3.384e-06
4.42307e-07
3.49851e-06
4.4167e-07
3.62236e-06
4.28462e-07
3.75406e-06
3.98708e-07
3.89022e-06
3.47978e-07
4.02517e-06
2.71827e-07
4.15155e-06
1.66509e-07
4.26743e-06
2.70772e-08
4.34942e-06
-1.1774e-07
4.38124e-06
-2.7239e-07
4.37106e-06
-4.23766e-07
4.32913e-06
-5.58426e-07
4.26909e-06
-6.62154e-07
4.19993e-06
-7.13094e-07
4.11197e-06
-6.55884e-07
3.9502e-06
-3.51234e-07
3.58591e-06
4.50462e-07
2.73325e-06
1.75807e-06
1.24319e-06
1.31873e-06
-7.25233e-06
-3.44623e-06
3.31841e-05
-5.90192e-06
1.10836e-05
-7.23167e-06
3.93741e-07
-7.81725e-06
-2.98151e-06
-8.05574e-06
-3.78823e-06
-8.12709e-06
-3.74786e-06
-8.11514e-06
-3.43209e-06
-8.05703e-06
-3.04599e-06
-7.9679e-06
-2.65896e-06
-7.85282e-06
-2.29192e-06
-7.71353e-06
-1.95113e-06
-7.55194e-06
-1.63942e-06
-7.37125e-06
-1.3589e-06
-7.17618e-06
-1.11119e-06
-6.97249e-06
-8.97025e-07
-6.76593e-06
-7.1577e-07
-6.56139e-06
-5.65587e-07
-6.36234e-06
-4.43811e-07
-6.17267e-06
-3.4723e-07
-5.99423e-06
-2.71597e-07
-5.82769e-06
-2.12998e-07
-5.67366e-06
-1.68227e-07
-5.52938e-06
-1.34248e-07
-5.39422e-06
-1.08374e-07
-5.26843e-06
-8.94607e-08
-5.1513e-06
-7.6095e-08
-5.04192e-06
-6.70778e-08
-4.93939e-06
-6.14097e-08
-4.84295e-06
-5.82863e-08
-4.75189e-06
-5.70983e-08
-4.66555e-06
-5.73986e-08
-4.58337e-06
-5.88587e-08
-4.50497e-06
-6.12127e-08
-4.43017e-06
-6.42111e-08
-4.35953e-06
-6.76523e-08
-4.29146e-06
-7.14351e-08
-4.22454e-06
-7.53985e-08
-4.15919e-06
-7.94359e-08
-4.09543e-06
-8.35113e-08
-4.03322e-06
-8.7639e-08
-3.97254e-06
-9.17765e-08
-3.9133e-06
-9.57727e-08
-3.85534e-06
-9.95624e-08
-3.79851e-06
-1.03318e-07
-3.74272e-06
-1.07233e-07
-3.68772e-06
-1.11225e-07
-3.63326e-06
-1.14996e-07
-3.57934e-06
-1.18275e-07
-3.52604e-06
-1.21365e-07
-3.47349e-06
-1.24508e-07
-3.42162e-06
-1.27496e-07
-3.37013e-06
-1.29917e-07
-3.31875e-06
-1.31694e-07
-3.26758e-06
-1.33108e-07
-3.21689e-06
-1.34416e-07
-3.16671e-06
-1.35469e-07
-3.11662e-06
-1.35914e-07
-3.06608e-06
-1.35674e-07
-3.01502e-06
-1.35081e-07
-2.9638e-06
-1.34587e-07
-2.91282e-06
-1.34158e-07
-2.86198e-06
-1.33451e-07
-2.81074e-06
-1.32216e-07
-2.75864e-06
-1.30791e-07
-2.70575e-06
-1.2985e-07
-2.65258e-06
-1.29953e-07
-2.59972e-06
-1.30919e-07
-2.54735e-06
-1.32097e-07
-2.49517e-06
-1.32922e-07
-2.4427e-06
-1.33495e-07
-2.38978e-06
-1.34511e-07
-2.33676e-06
-1.36555e-07
-2.28424e-06
-1.39568e-07
-2.23262e-06
-1.42778e-07
-2.18171e-06
-1.45171e-07
-2.13093e-06
-1.45967e-07
-2.0797e-06
-1.45451e-07
-2.02762e-06
-1.4433e-07
-1.9748e-06
-1.43606e-07
-1.9217e-06
-1.43797e-07
-1.86871e-06
-1.44519e-07
-1.81597e-06
-1.45203e-07
-1.76323e-06
-1.45359e-07
-1.71008e-06
-1.45111e-07
-1.65641e-06
-1.44919e-07
-1.60241e-06
-1.45454e-07
-1.54861e-06
-1.47141e-07
-1.49551e-06
-1.49697e-07
-1.44319e-06
-1.5244e-07
-1.39135e-06
-1.54352e-07
-1.33959e-06
-1.54571e-07
-1.28733e-06
-1.53067e-07
-1.2341e-06
-1.50494e-07
-1.17973e-06
-1.47908e-07
-1.12462e-06
-1.46323e-07
-1.06943e-06
-1.46414e-07
-1.01487e-06
-1.48025e-07
-9.61335e-07
-1.5054e-07
-9.08692e-07
-1.53014e-07
-8.56512e-07
-1.54473e-07
-8.04341e-07
-1.54237e-07
-7.5172e-07
-1.52393e-07
-6.98243e-07
-1.49564e-07
-6.43748e-07
-1.46609e-07
-5.88663e-07
-1.44465e-07
-5.33492e-07
-1.43558e-07
-4.78754e-07
-1.43884e-07
-4.24787e-07
-1.4512e-07
-3.717e-07
-1.46661e-07
-3.19332e-07
-1.47712e-07
-2.67281e-07
-1.47792e-07
-2.15209e-07
-1.46542e-07
-1.62683e-07
-1.44135e-07
-1.09507e-07
-1.40977e-07
-5.56209e-08
-1.37709e-07
-1.28311e-09
-1.34755e-07
5.32258e-08
-1.32587e-07
1.07579e-07
-1.31333e-07
1.61479e-07
-1.30925e-07
2.14722e-07
-1.31103e-07
2.67222e-07
-1.31494e-07
3.19032e-07
-1.31675e-07
3.70335e-07
-1.31261e-07
4.214e-07
-1.29978e-07
4.72522e-07
-1.27722e-07
5.23953e-07
-1.24565e-07
5.75854e-07
-1.20719e-07
6.28276e-07
-1.16476e-07
6.81143e-07
-1.12152e-07
7.34192e-07
-1.0809e-07
7.87313e-07
-1.04634e-07
8.40415e-07
-1.01876e-07
8.93338e-07
-9.98252e-08
9.45885e-07
-9.845e-08
9.97881e-07
-9.76643e-08
1.04921e-06
-9.73301e-08
1.09982e-06
-9.72772e-08
1.1498e-06
-9.73302e-08
1.19911e-06
-9.73426e-08
1.24783e-06
-9.71245e-08
1.29603e-06
-9.65244e-08
1.34377e-06
-9.54303e-08
1.39106e-06
-9.37689e-08
1.43795e-06
-9.15024e-08
1.48448e-06
-8.8628e-08
1.53064e-06
-8.51825e-08
1.57663e-06
-8.1177e-08
1.62254e-06
-7.66395e-08
1.66844e-06
-7.16076e-08
1.71432e-06
-6.61128e-08
1.76007e-06
-6.01662e-08
1.80528e-06
-5.37365e-08
1.84924e-06
-4.66742e-08
1.89278e-06
-3.88593e-08
1.93771e-06
-3.04566e-08
1.98296e-06
-2.1685e-08
2.02773e-06
-1.18009e-08
2.07048e-06
-1.29411e-10
2.114e-06
8.81246e-09
2.15862e-06
1.81137e-08
2.20392e-06
2.85679e-08
2.2497e-06
3.99236e-08
2.29572e-06
5.24185e-08
2.34173e-06
6.62494e-08
2.38825e-06
8.06271e-08
2.43546e-06
9.57051e-08
2.48372e-06
1.11274e-07
2.5333e-06
1.27481e-07
2.58444e-06
1.44482e-07
2.63742e-06
1.62332e-07
2.69253e-06
1.81037e-07
2.75007e-06
2.00531e-07
2.81051e-06
2.20581e-07
2.87435e-06
2.40882e-07
2.94223e-06
2.61062e-07
3.01478e-06
2.80618e-07
3.0927e-06
2.9887e-07
3.17667e-06
3.14927e-07
3.26734e-06
3.27632e-07
3.36518e-06
3.35501e-07
3.47039e-06
3.36702e-07
3.58262e-06
3.2905e-07
3.70061e-06
3.10071e-07