/*--------------------------------*- C++ -*----------------------------------*\
  =========                 |
  \\      /  F ield         | OpenFOAM: The Open Source CFD Toolbox
   \\    /   O peration     | Website:  https://openfoam.org
    \\  /    A nd           | Version:  11
     \\/     M anipulation  |
\*---------------------------------------------------------------------------*/
FoamFile
{
    format      ascii;
    class       volVectorField;
    location    "2";
    object      U;
}
// * * * * * * * * * * * * * * * * * * * * * * * * * * * * * * * * * * * * * //

dimensions      [0 1 -1 0 0 0 0];

internalField   nonuniform List<vector> 
40000
(
(-0.0118585 0.00785479 0)
(-0.0159119 -0.00165305 0)
(-0.0109544 -0.00382421 0)
(-0.00552737 -0.00337503 0)
(-0.000940153 -0.00260255 0)
(0.00245167 -0.00202098 0)
(0.00516246 -0.00165861 0)
(0.00737036 -0.00141971 0)
(0.00913381 -0.00123226 0)
(0.0104819 -0.00105588 0)
(0.0113978 -0.000881373 0)
(0.0119006 -0.000703551 0)
(0.0120327 -0.000550484 0)
(0.011887 -0.000469899 0)
(0.0115938 -0.000439815 0)
(0.0112283 -0.000428818 0)
(0.0108261 -0.000428596 0)
(0.0104088 -0.000435365 0)
(0.00999136 -0.000446034 0)
(0.00958259 -0.000458127 0)
(0.00918732 -0.000470135 0)
(0.00880812 -0.00048154 0)
(0.00844657 -0.000492332 0)
(0.00810316 -0.000502337 0)
(0.00777771 -0.000511346 0)
(0.00747001 -0.000519566 0)
(0.00717943 -0.000527141 0)
(0.00690524 -0.000533859 0)
(0.0066468 -0.000540001 0)
(0.00640292 -0.000545982 0)
(0.00617248 -0.000551207 0)
(0.00595489 -0.00055567 0)
(0.00574925 -0.000560122 0)
(0.00555481 -0.000564894 0)
(0.00537103 -0.000569102 0)
(0.00519693 -0.000572344 0)
(0.00503187 -0.000575722 0)
(0.00487561 -0.000580024 0)
(0.00472737 -0.000583842 0)
(0.00458635 -0.000586144 0)
(0.00445286 -0.000588491 0)
(0.00432694 -0.000592322 0)
(0.00420677 -0.000595936 0)
(0.0040911 -0.000598061 0)
(0.00398139 -0.00059985 0)
(0.00387889 -0.000602995 0)
(0.0037824 -0.00060662 0)
(0.0036893 -0.000608975 0)
(0.00359824 -0.000610223 0)
(0.00351144 -0.00061189 0)
(0.00343146 -0.000614757 0)
(0.00335671 -0.000617258 0)
(0.00328305 -0.000618338 0)
(0.0032077 -0.000618882 0)
(0.00313288 -0.000620151 0)
(0.00306256 -0.000622497 0)
(0.00299655 -0.000624316 0)
(0.00292999 -0.000624797 0)
(0.00285759 -0.000624371 0)
(0.0027797 -0.000624605 0)
(0.00270137 -0.000625877 0)
(0.00262649 -0.000627361 0)
(0.00255281 -0.000627832 0)
(0.00247438 -0.000626786 0)
(0.00238717 -0.00062562 0)
(0.00229431 -0.000625538 0)
(0.00220331 -0.000627061 0)
(0.00211928 -0.000629251 0)
(0.00204152 -0.000630298 0)
(0.00196452 -0.000629896 0)
(0.00188334 -0.000629047 0)
(0.00179882 -0.000629408 0)
(0.00171711 -0.000631316 0)
(0.00164517 -0.00063424 0)
(0.00158538 -0.000636612 0)
(0.00153214 -0.000637603 0)
(0.00147658 -0.000636816 0)
(0.00141153 -0.000635427 0)
(0.00133668 -0.000634674 0)
(0.00125773 -0.000634971 0)
(0.00118077 -0.000636433 0)
(0.00110895 -0.000637791 0)
(0.00104048 -0.000638198 0)
(0.000970785 -0.000637357 0)
(0.00089583 -0.00063609 0)
(0.000815738 -0.000635642 0)
(0.000735019 -0.000636324 0)
(0.00066021 -0.000638504 0)
(0.000596604 -0.00064147 0)
(0.000543935 -0.000643702 0)
(0.000496533 -0.000644386 0)
(0.000446199 -0.000643116 0)
(0.000384773 -0.000640708 0)
(0.000309168 -0.000638 0)
(0.000223678 -0.00063616 0)
(0.000134908 -0.000636221 0)
(4.96447e-05 -0.000638211 0)
(-2.55686e-05 -0.000640734 0)
(-8.7671e-05 -0.000642919 0)
(-0.000139845 -0.00064417 0)
(-0.000188737 -0.000643833 0)
(-0.00024157 -0.000642527 0)
(-0.000304529 -0.000640864 0)
(-0.000379543 -0.000638798 0)
(-0.000463611 -0.000637145 0)
(-0.000551302 -0.00063645 0)
(-0.000637644 -0.000637065 0)
(-0.000717857 -0.000638297 0)
(-0.000789321 -0.000639706 0)
(-0.000852328 -0.000640787 0)
(-0.000910192 -0.000641026 0)
(-0.000967323 -0.000640362 0)
(-0.00102834 -0.000638908 0)
(-0.00109711 -0.000637058 0)
(-0.0011749 -0.000635202 0)
(-0.00126032 -0.000633361 0)
(-0.00135065 -0.000632227 0)
(-0.00144301 -0.00063183 0)
(-0.0015342 -0.000632019 0)
(-0.00162141 -0.000632494 0)
(-0.00170303 -0.000632982 0)
(-0.00177894 -0.000633304 0)
(-0.00185041 -0.000633117 0)
(-0.00191972 -0.000632645 0)
(-0.00198965 -0.00063177 0)
(-0.00206281 -0.000630647 0)
(-0.00214139 -0.000629277 0)
(-0.00222674 -0.000627714 0)
(-0.00231908 -0.000626008 0)
(-0.00241807 -0.000624359 0)
(-0.00252265 -0.000622864 0)
(-0.00263109 -0.000621618 0)
(-0.00274182 -0.000620804 0)
(-0.00285324 -0.000620394 0)
(-0.00296374 -0.000620279 0)
(-0.00307203 -0.000620367 0)
(-0.00317727 -0.000620563 0)
(-0.00327894 -0.000620577 0)
(-0.00337703 -0.000620479 0)
(-0.00347189 -0.000620168 0)
(-0.00356404 -0.000619664 0)
(-0.00365428 -0.000618955 0)
(-0.00374339 -0.000618033 0)
(-0.00383223 -0.000616912 0)
(-0.00392165 -0.000615598 0)
(-0.00401247 -0.000614096 0)
(-0.00410544 -0.000612416 0)
(-0.00420121 -0.000610587 0)
(-0.00430027 -0.00060864 0)
(-0.00440302 -0.000606614 0)
(-0.00450983 -0.0006045 0)
(-0.00462105 -0.000602237 0)
(-0.00473707 -0.000599818 0)
(-0.0048583 -0.000597281 0)
(-0.00498513 -0.000594616 0)
(-0.0051178 -0.00059184 0)
(-0.00525656 -0.000589 0)
(-0.00540181 -0.000586108 0)
(-0.0055539 -0.000583045 0)
(-0.00571322 -0.000579824 0)
(-0.00588033 -0.00057641 0)
(-0.00605565 -0.000572894 0)
(-0.00623973 -0.000569235 0)
(-0.00643333 -0.000565385 0)
(-0.00663719 -0.00056119 0)
(-0.00685215 -0.00055666 0)
(-0.00707917 -0.000551863 0)
(-0.00731915 -0.000546689 0)
(-0.00757315 -0.000541099 0)
(-0.00784243 -0.000534994 0)
(-0.00812829 -0.000528193 0)
(-0.00843217 -0.000520599 0)
(-0.00875565 -0.000512239 0)
(-0.00910045 -0.000502913 0)
(-0.00946842 -0.000492421 0)
(-0.00986145 -0.000480581 0)
(-0.0102815 -0.000467272 0)
(-0.0107305 -0.000452364 0)
(-0.0112102 -0.000435694 0)
(-0.0117224 -0.000417077 0)
(-0.0122684 -0.00039642 0)
(-0.0128488 -0.0003739 0)
(-0.0134628 -0.000350247 0)
(-0.0141076 -0.000327156 0)
(-0.0147765 -0.000307852 0)
(-0.0154569 -0.000297764 0)
(-0.0161259 -0.000304754 0)
(-0.0167472 -0.000337676 0)
(-0.017269 -0.000401572 0)
(-0.0176121 -0.000493964 0)
(-0.0176609 -0.000604323 0)
(-0.0173879 -0.000687609 0)
(-0.0169206 -0.000711124 0)
(-0.0163647 -0.000682141 0)
(-0.0158369 -0.00063146 0)
(-0.015471 -0.000622301 0)
(-0.0153733 -0.000789499 0)
(-0.0151682 -0.0014299 0)
(-0.0132052 -0.00326306 0)
(-0.00612808 -0.00741006 0)
(-0.00936742 0.0207172 0)
(-0.0141071 -0.00080061 0)
(-0.0134979 -0.0068169 0)
(-0.011455 -0.0066309 0)
(-0.00901901 -0.00546008 0)
(-0.00668595 -0.00434927 0)
(-0.00456532 -0.0034687 0)
(-0.00269861 -0.00273097 0)
(-0.00107804 -0.00203913 0)
(0.000337366 -0.00131091 0)
(0.00145312 -0.000611128 0)
(0.00234163 2.24598e-05 0)
(0.00299332 0.000525895 0)
(0.00337081 0.000856257 0)
(0.00350836 0.00105413 0)
(0.00352365 0.00116497 0)
(0.00344139 0.00122542 0)
(0.00329729 0.00125325 0)
(0.00311707 0.0012593 0)
(0.00291671 0.00125174 0)
(0.00270674 0.00123599 0)
(0.00249437 0.00121516 0)
(0.00228514 0.001191 0)
(0.00208203 0.00116528 0)
(0.00188695 0.00113955 0)
(0.00170207 0.00111365 0)
(0.00152733 0.00108763 0)
(0.00136277 0.00106292 0)
(0.00120927 0.00103959 0)
(0.0010665 0.00101682 0)
(0.000932544 0.000995504 0)
(0.000807993 0.000976387 0)
(0.000694553 0.000957889 0)
(0.000589428 0.000939444 0)
(0.000489861 0.000922989 0)
(0.000398941 0.000909044 0)
(0.000318484 0.000895232 0)
(0.000243851 0.000881284 0)
(0.000172312 0.000869328 0)
(0.00010776 0.000858698 0)
(5.25274e-05 0.000846838 0)
(2.47569e-06 0.000835116 0)
(-4.64725e-05 0.000826935 0)
(-9.10503e-05 0.000820616 0)
(-0.000126902 0.000810881 0)
(-0.000157166 0.000798576 0)
(-0.000186404 0.000790792 0)
(-0.00021378 0.000789652 0)
(-0.000235634 0.000787696 0)
(-0.000251144 0.000778352 0)
(-0.0002642 0.000765808 0)
(-0.000277412 0.000760705 0)
(-0.000288952 0.000765408 0)
(-0.000297108 0.000769626 0)
(-0.000302253 0.000764695 0)
(-0.000307151 0.000754201 0)
(-0.000313304 0.000750888 0)
(-0.000319578 0.000760783 0)
(-0.000325759 0.000775141 0)
(-0.000332392 0.000781377 0)
(-0.000340521 0.000776961 0)
(-0.000350938 0.000771689 0)
(-0.000363283 0.000776536 0)
(-0.000376574 0.000792375 0)
(-0.000392166 0.000807197 0)
(-0.00040918 0.000810395 0)
(-0.000426931 0.000800886 0)
(-0.000444467 0.000787796 0)
(-0.000460854 0.000782274 0)
(-0.000475455 0.00078804 0)
(-0.000488856 0.000796756 0)
(-0.0005013 0.000796987 0)
(-0.000512256 0.000783739 0)
(-0.000519947 0.000762232 0)
(-0.00052301 0.00074467 0)
(-0.000523189 0.000742104 0)
(-0.000522002 0.000755745 0)
(-0.000523949 0.000775347 0)
(-0.000529503 0.000788648 0)
(-0.00053738 0.000790252 0)
(-0.000546655 0.000783018 0)
(-0.000555486 0.000775097 0)
(-0.000563779 0.00077388 0)
(-0.000571458 0.000781489 0)
(-0.000580284 0.000791803 0)
(-0.000589917 0.000796875 0)
(-0.000599278 0.000791759 0)
(-0.000606644 0.000776009 0)
(-0.000608421 0.000755525 0)
(-0.000605641 0.000740528 0)
(-0.00060073 0.000738822 0)
(-0.000595631 0.000753429 0)
(-0.000595785 0.000777428 0)
(-0.000603897 0.000800035 0)
(-0.00061634 0.000812474 0)
(-0.00063092 0.000811597 0)
(-0.0006451 0.000798144 0)
(-0.000653766 0.000776667 0)
(-0.000655196 0.000755371 0)
(-0.000651708 0.00074282 0)
(-0.000646101 0.000743777 0)
(-0.00064164 0.000757537 0)
(-0.000643401 0.0007781 0)
(-0.000652933 0.000798345 0)
(-0.000667107 0.000809721 0)
(-0.000682734 0.000811374 0)
(-0.000698248 0.00080391 0)
(-0.000710442 0.000789977 0)
(-0.000717785 0.000773251 0)
(-0.000720644 0.000759306 0)
(-0.000721554 0.000753085 0)
(-0.000722291 0.000756294 0)
(-0.000724807 0.00076793 0)
(-0.000732179 0.00078336 0)
(-0.000744969 0.000798559 0)
(-0.000762044 0.000810112 0)
(-0.000781717 0.000816011 0)
(-0.000802609 0.000816029 0)
(-0.000823354 0.000810819 0)
(-0.000842166 0.000801744 0)
(-0.000857984 0.000791001 0)
(-0.000870655 0.000780883 0)
(-0.000881412 0.000773907 0)
(-0.000891649 0.000771643 0)
(-0.000902795 0.000774683 0)
(-0.000916182 0.000782323 0)
(-0.000933103 0.000793005 0)
(-0.000954536 0.00080489 0)
(-0.000980619 0.000816368 0)
(-0.00101132 0.000826157 0)
(-0.00104583 0.000833707 0)
(-0.00108272 0.000838548 0)
(-0.00112106 0.000840465 0)
(-0.00115983 0.000839522 0)
(-0.00119805 0.000836099 0)
(-0.00123494 0.000830772 0)
(-0.00126975 0.00082428 0)
(-0.00130219 0.000817333 0)
(-0.00133241 0.000810455 0)
(-0.00136063 0.000804274 0)
(-0.0013872 0.000799121 0)
(-0.00141273 0.000795191 0)
(-0.00143783 0.000792595 0)
(-0.00146312 0.000791413 0)
(-0.00148925 0.000791707 0)
(-0.00151678 0.000793468 0)
(-0.00154628 0.000796629 0)
(-0.00157825 0.000800937 0)
(-0.00161318 0.000806111 0)
(-0.0016514 0.000811948 0)
(-0.00169323 0.000818367 0)
(-0.00173898 0.000825407 0)
(-0.00178899 0.000833084 0)
(-0.00184361 0.000841365 0)
(-0.00190326 0.000850172 0)
(-0.0019683 0.000859484 0)
(-0.00203894 0.000869339 0)
(-0.00211549 0.000879791 0)
(-0.00219837 0.000891014 0)
(-0.00228775 0.00090304 0)
(-0.00238435 0.000915853 0)
(-0.0024886 0.000929575 0)
(-0.0026008 0.000944357 0)
(-0.00272161 0.00096033 0)
(-0.00285186 0.000977738 0)
(-0.00299243 0.000996618 0)
(-0.00314412 0.00101701 0)
(-0.00330759 0.00103902 0)
(-0.0034838 0.0010628 0)
(-0.00367372 0.00108852 0)
(-0.00387842 0.00111638 0)
(-0.00409935 0.0011465 0)
(-0.00433758 0.00117902 0)
(-0.00459404 0.00121401 0)
(-0.00487021 0.00125153 0)
(-0.0051673 0.00129158 0)
(-0.00548624 0.001334 0)
(-0.00582771 0.00137844 0)
(-0.00619185 0.00142447 0)
(-0.00657805 0.00147134 0)
(-0.00698454 0.00151774 0)
(-0.00740785 0.00156153 0)
(-0.00784231 0.00159947 0)
(-0.00827871 0.00162685 0)
(-0.0087034 0.00163658 0)
(-0.00909726 0.00161814 0)
(-0.00943373 0.00155642 0)
(-0.0096782 0.00142927 0)
(-0.00979634 0.00120422 0)
(-0.00974324 0.000842159 0)
(-0.00934689 0.000358223 0)
(-0.00884082 -0.000108263 0)
(-0.00823984 -0.000418577 0)
(-0.00758463 -0.000530328 0)
(-0.00691656 -0.000426577 0)
(-0.00633336 -0.000114301 0)
(-0.0060653 0.000198303 0)
(-0.00623352 -0.000537251 0)
(-0.00663417 -0.00486223 0)
(-0.002706 -0.0143743 0)
(-0.00730257 0.031522 0)
(-0.0124338 0.00281845 0)
(-0.0145433 -0.00669029 0)
(-0.0147458 -0.00770349 0)
(-0.0141625 -0.00700379 0)
(-0.0133031 -0.00609916 0)
(-0.012412 -0.00528489 0)
(-0.0115839 -0.00457632 0)
(-0.0108352 -0.00392996 0)
(-0.0101397 -0.00329642 0)
(-0.00946952 -0.00265438 0)
(-0.00880641 -0.0020295 0)
(-0.00815805 -0.0014489 0)
(-0.0075361 -0.000941649 0)
(-0.0069754 -0.000552211 0)
(-0.0065445 -0.000294085 0)
(-0.00621168 -0.000135474 0)
(-0.00595466 -4.44472e-05 0)
(-0.00575612 -8.93248e-08 0)
(-0.00560113 1.6112e-05 0)
(-0.00547885 1.40897e-05 0)
(-0.00538108 -2.55009e-07 0)
(-0.00530167 -2.28437e-05 0)
(-0.00523592 -5.00909e-05 0)
(-0.00517976 -7.94611e-05 0)
(-0.00513005 -0.000109971 0)
(-0.00508515 -0.000140887 0)
(-0.00504369 -0.000170986 0)
(-0.00500415 -0.000200019 0)
(-0.00496565 -0.000227997 0)
(-0.004928 -0.000254242 0)
(-0.00488995 -0.000278449 0)
(-0.00485077 -0.000302045 0)
(-0.00481185 -0.000324973 0)
(-0.00477331 -0.000346042 0)
(-0.0047325 -0.000365504 0)
(-0.00468942 -0.000384862 0)
(-0.00464731 -0.000403564 0)
(-0.0046062 -0.000420386 0)
(-0.00456247 -0.00043622 0)
(-0.0045159 -0.000452277 0)
(-0.00447015 -0.000466957 0)
(-0.00442555 -0.000478801 0)
(-0.0043782 -0.000489474 0)
(-0.00432732 -0.000502721 0)
(-0.00427734 -0.000517766 0)
(-0.00423029 -0.000529972 0)
(-0.00418213 -0.000537533 0)
(-0.00412918 -0.000545677 0)
(-0.00407407 -0.000558444 0)
(-0.00402223 -0.000572127 0)
(-0.00397353 -0.000579818 0)
(-0.00392228 -0.000580475 0)
(-0.00386543 -0.000581164 0)
(-0.0038065 -0.000587542 0)
(-0.0037513 -0.000596844 0)
(-0.00370021 -0.000601143 0)
(-0.00364806 -0.000596639 0)
(-0.00359061 -0.000588686 0)
(-0.00352917 -0.000585332 0)
(-0.00346949 -0.000588983 0)
(-0.00341501 -0.000592937 0)
(-0.00336322 -0.000589784 0)
(-0.00330848 -0.000578764 0)
(-0.00324857 -0.000567807 0)
(-0.00318588 -0.00056522 0)
(-0.0031258 -0.000572436 0)
(-0.00307118 -0.000582642 0)
(-0.00301979 -0.000587903 0)
(-0.00296652 -0.000585362 0)
(-0.00290838 -0.000580716 0)
(-0.00284676 -0.000581893 0)
(-0.00278619 -0.00059279 0)
(-0.00272981 -0.000608888 0)
(-0.00267776 -0.000622297 0)
(-0.00262739 -0.000626271 0)
(-0.00257316 -0.000619239 0)
(-0.00251388 -0.000607835 0)
(-0.00245125 -0.000599102 0)
(-0.00238819 -0.000598052 0)
(-0.00232804 -0.000602991 0)
(-0.0022711 -0.000608613 0)
(-0.00221524 -0.000609862 0)
(-0.0021575 -0.000605264 0)
(-0.00209693 -0.000598708 0)
(-0.00203355 -0.000595658 0)
(-0.00196994 -0.000600428 0)
(-0.0019083 -0.00061291 0)
(-0.0018491 -0.000628812 0)
(-0.00179528 -0.000641606 0)
(-0.00174449 -0.000644151 0)
(-0.00168948 -0.000634067 0)
(-0.00162903 -0.000616554 0)
(-0.00156563 -0.0005994 0)
(-0.0014997 -0.000589025 0)
(-0.00143415 -0.000589115 0)
(-0.00137161 -0.000599214 0)
(-0.00131047 -0.000615344 0)
(-0.00125155 -0.00063125 0)
(-0.00119736 -0.000641237 0)
(-0.0011445 -0.00064093 0)
(-0.00108757 -0.000630242 0)
(-0.00102707 -0.000614821 0)
(-0.000965783 -0.000598729 0)
(-0.000903964 -0.000589121 0)
(-0.000841078 -0.000587024 0)
(-0.00077974 -0.000592341 0)
(-0.000719646 -0.000602418 0)
(-0.000660947 -0.000613712 0)
(-0.000603557 -0.000622145 0)
(-0.000548283 -0.000625495 0)
(-0.000493227 -0.000622071 0)
(-0.000437246 -0.000613365 0)
(-0.000380763 -0.00060127 0)
(-0.000323383 -0.000588706 0)
(-0.000265446 -0.000578334 0)
(-0.000206626 -0.000572257 0)
(-0.000147716 -0.000571176 0)
(-8.98349e-05 -0.000574563 0)
(-3.29896e-05 -0.000580979 0)
(2.26748e-05 -0.000588295 0)
(7.69119e-05 -0.000594509 0)
(0.000129721 -0.000597943 0)
(0.000181358 -0.000597454 0)
(0.00023227 -0.00059276 0)
(0.000282859 -0.00058414 0)
(0.000333294 -0.000572636 0)
(0.000383666 -0.000559517 0)
(0.00043406 -0.000546187 0)
(0.00048454 -0.000534349 0)
(0.000535168 -0.00052516 0)
(0.000585963 -0.000519086 0)
(0.000636691 -0.000516042 0)
(0.000687114 -0.000515826 0)
(0.000737094 -0.00051794 0)
(0.000786541 -0.000521735 0)
(0.000835366 -0.000526348 0)
(0.000883452 -0.000531273 0)
(0.000930762 -0.000536016 0)
(0.000977273 -0.000539802 0)
(0.00102293 -0.000542214 0)
(0.00106765 -0.000543005 0)
(0.00111144 -0.000542082 0)
(0.00115429 -0.000539494 0)
(0.00119623 -0.000535392 0)
(0.00123732 -0.00053014 0)
(0.00127753 -0.00052373 0)
(0.00131667 -0.000516285 0)
(0.00135454 -0.000507925 0)
(0.001391 -0.000498687 0)
(0.00142595 -0.000488532 0)
(0.00145931 -0.00047737 0)
(0.00149104 -0.000465199 0)
(0.00152101 -0.000452129 0)
(0.00154894 -0.000438434 0)
(0.00157453 -0.000424258 0)
(0.00159761 -0.000409481 0)
(0.00161807 -0.000393912 0)
(0.00163578 -0.000377398 0)
(0.00165072 -0.000359892 0)
(0.0016627 -0.000341471 0)
(0.00167145 -0.00032182 0)
(0.00167676 -0.000300761 0)
(0.00167835 -0.000278034 0)
(0.00167586 -0.000253386 0)
(0.00166904 -0.000226823 0)
(0.00165759 -0.000198112 0)
(0.00164129 -0.000167159 0)
(0.00161987 -0.000133718 0)
(0.00159306 -9.74686e-05 0)
(0.00156057 -5.80872e-05 0)
(0.00152213 -1.55746e-05 0)
(0.00147753 3.05231e-05 0)
(0.00142679 8.02925e-05 0)
(0.00136991 0.000133839 0)
(0.00130712 0.000191084 0)
(0.00123902 0.000251583 0)
(0.00116665 0.000314546 0)
(0.00109162 0.00037887 0)
(0.00101636 0.000442783 0)
(0.000944417 0.000503453 0)
(0.000880884 0.000556468 0)
(0.000832625 0.000595227 0)
(0.000808595 0.000610541 0)
(0.000820321 0.00058931 0)
(0.0008816 0.000513766 0)
(0.001007 0.000361001 0)
(0.00120643 0.00010164 0)
(0.00147299 -0.000302034 0)
(0.00187034 -0.000831321 0)
(0.00214107 -0.00131312 0)
(0.00233085 -0.00165195 0)
(0.00247435 -0.00182607 0)
(0.00261889 -0.00184153 0)
(0.00280015 -0.00169003 0)
(0.00301497 -0.00132743 0)
(0.00313841 -0.00076021 0)
(0.00285817 -0.000651259 0)
(0.000706751 -0.00421756 0)
(-0.000330778 -0.0162827 0)
(-0.00580868 0.0404654 0)
(-0.0108439 0.00784544 0)
(-0.0137928 -0.00470648 0)
(-0.014795 -0.00714715 0)
(-0.0149818 -0.0069696 0)
(-0.0147958 -0.00617135 0)
(-0.0144785 -0.00527628 0)
(-0.0141333 -0.00441648 0)
(-0.0137903 -0.00360773 0)
(-0.0134415 -0.00283956 0)
(-0.0130668 -0.00211594 0)
(-0.0126525 -0.00145361 0)
(-0.0121972 -0.000869766 0)
(-0.0117108 -0.00037496 0)
(-0.0112158 2.24621e-05 0)
(-0.0107328 0.000326948 0)
(-0.0102828 0.00054419 0)
(-0.00988263 0.000693287 0)
(-0.00952883 0.000795292 0)
(-0.00921244 0.000862104 0)
(-0.00893163 0.000902673 0)
(-0.00868147 0.000924549 0)
(-0.00845708 0.000934086 0)
(-0.00825461 0.000934553 0)
(-0.00807059 0.000928025 0)
(-0.007902 0.000916643 0)
(-0.00774677 0.000902084 0)
(-0.00760273 0.000885612 0)
(-0.00746761 0.000868085 0)
(-0.00734036 0.00085016 0)
(-0.00722048 0.000832326 0)
(-0.007106 0.000814731 0)
(-0.00699546 0.000797281 0)
(-0.00688997 0.000780223 0)
(-0.00678952 0.000764099 0)
(-0.00669111 0.000749702 0)
(-0.00659373 0.000736873 0)
(-0.00649986 0.000725052 0)
(-0.00640967 0.000714041 0)
(-0.00631988 0.00070328 0)
(-0.00622994 0.000692495 0)
(-0.0061431 0.000682413 0)
(-0.00605981 0.000673495 0)
(-0.00597636 0.00066486 0)
(-0.00589186 0.000655444 0)
(-0.00581053 0.000646456 0)
(-0.00573325 0.00064063 0)
(-0.00565532 0.00063743 0)
(-0.00557333 0.00063396 0)
(-0.00548962 0.000628575 0)
(-0.00540992 0.00062306 0)
(-0.00533524 0.000620361 0)
(-0.00526013 0.000620546 0)
(-0.0051801 0.000620358 0)
(-0.00509757 0.00061766 0)
(-0.00501883 0.000614455 0)
(-0.0049458 0.000614596 0)
(-0.00487312 0.000619052 0)
(-0.00479483 0.000624315 0)
(-0.00471136 0.000626548 0)
(-0.00462847 0.000625665 0)
(-0.00455059 0.000625803 0)
(-0.00447576 0.000630374 0)
(-0.00439774 0.00063833 0)
(-0.00431308 0.000644885 0)
(-0.00422417 0.000645982 0)
(-0.0041369 0.000641875 0)
(-0.00405528 0.000636859 0)
(-0.00397788 0.000635327 0)
(-0.00389927 0.000637923 0)
(-0.00381533 0.000640746 0)
(-0.00372717 0.000639133 0)
(-0.00363998 0.000631425 0)
(-0.0035586 0.0006207 0)
(-0.0034841 0.000612316 0)
(-0.00341237 0.000611254 0)
(-0.00333832 0.000617812 0)
(-0.00325851 0.000626566 0)
(-0.00317237 0.000632738 0)
(-0.00308464 0.00063359 0)
(-0.0029999 0.000630624 0)
(-0.00291952 0.000627381 0)
(-0.00284109 0.00062731 0)
(-0.00276043 0.000630951 0)
(-0.00267517 0.000635623 0)
(-0.00258563 0.000637751 0)
(-0.00249585 0.000634325 0)
(-0.00240994 0.000625542 0)
(-0.00232945 0.000613914 0)
(-0.00225375 0.000604449 0)
(-0.002179 0.000603307 0)
(-0.00210249 0.000611919 0)
(-0.00202301 0.000625534 0)
(-0.00193736 0.000637783 0)
(-0.00184479 0.00064512 0)
(-0.00175107 0.00064512 0)
(-0.00166099 0.000638238 0)
(-0.00157549 0.000626915 0)
(-0.00149544 0.0006148 0)
(-0.00141932 0.000606762 0)
(-0.00134273 0.000607196 0)
(-0.00126471 0.000615814 0)
(-0.00118389 0.000627666 0)
(-0.00109872 0.000639196 0)
(-0.00100982 0.000645894 0)
(-0.000918197 0.000647428 0)
(-0.000828569 0.000643756 0)
(-0.000741544 0.000636654 0)
(-0.000658136 0.000628475 0)
(-0.000578979 0.000621873 0)
(-0.000502911 0.000618729 0)
(-0.000427152 0.000620841 0)
(-0.000349406 0.00062707 0)
(-0.000268768 0.000635519 0)
(-0.000185 0.00064394 0)
(-9.84152e-05 0.000650559 0)
(-1.00886e-05 0.00065439 0)
(7.83427e-05 0.000654899 0)
(0.000165063 0.000652379 0)
(0.000249488 0.000647758 0)
(0.000331217 0.000642194 0)
(0.000410127 0.000637136 0)
(0.000486584 0.000633908 0)
(0.000561572 0.000633376 0)
(0.000636476 0.000635818 0)
(0.000712445 0.000640844 0)
(0.000790062 0.000647592 0)
(0.000869459 0.000655008 0)
(0.000950122 0.000662167 0)
(0.00103131 0.000668765 0)
(0.00111347 0.000674657 0)
(0.00119709 0.000678956 0)
(0.00128128 0.000681013 0)
(0.00136497 0.000680737 0)
(0.00144742 0.000678387 0)
(0.00152813 0.000674441 0)
(0.00160684 0.000669529 0)
(0.00168336 0.000664304 0)
(0.00175804 0.000659583 0)
(0.00183137 0.0006556 0)
(0.00190345 0.000652578 0)
(0.0019744 0.000650651 0)
(0.00204427 0.000649903 0)
(0.00211307 0.000650408 0)
(0.00218072 0.000652308 0)
(0.00224771 0.000655888 0)
(0.00231457 0.000660759 0)
(0.00238127 0.00066658 0)
(0.00244777 0.000673055 0)
(0.00251397 0.000679981 0)
(0.00257982 0.000687273 0)
(0.00264529 0.000694994 0)
(0.00271026 0.000703508 0)
(0.00277449 0.000713695 0)
(0.00283773 0.000725756 0)
(0.00290003 0.000738611 0)
(0.00296155 0.000752076 0)
(0.00302219 0.000766163 0)
(0.00308199 0.000781067 0)
(0.00314109 0.000797143 0)
(0.00319953 0.000814483 0)
(0.00325725 0.00083317 0)
(0.00331424 0.000853353 0)
(0.00337045 0.000875261 0)
(0.00342584 0.000899024 0)
(0.0034805 0.000924642 0)
(0.00353459 0.000952127 0)
(0.00358831 0.000981561 0)
(0.00364188 0.00101311 0)
(0.00369553 0.00104696 0)
(0.00374956 0.00108322 0)
(0.00380433 0.00112187 0)
(0.00386033 0.00116291 0)
(0.00391825 0.0012062 0)
(0.00397897 0.00125147 0)
(0.00404359 0.00129823 0)
(0.0041135 0.00134565 0)
(0.00419043 0.00139249 0)
(0.00427648 0.00143703 0)
(0.00437423 0.00147679 0)
(0.00448678 0.00150819 0)
(0.00461773 0.00152628 0)
(0.00477096 0.00152433 0)
(0.00495016 0.00149357 0)
(0.0051581 0.00142301 0)
(0.00539499 0.00130009 0)
(0.00565504 0.00111313 0)
(0.00591886 0.000855987 0)
(0.00615644 0.00053278 0)
(0.00629463 0.000160257 0)
(0.00632617 -0.000220346 0)
(0.00628052 -0.000564165 0)
(0.00619628 -0.000829249 0)
(0.00611767 -0.000981697 0)
(0.00607303 -0.000963596 0)
(0.00604626 -0.000639419 0)
(0.00589984 0.000186519 0)
(0.00529275 0.00118419 0)
(0.00310387 -0.00133796 0)
(0.000585044 -0.014889 0)
(-0.00474397 0.0478815 0)
(-0.00955479 0.012247 0)
(-0.01262 -0.0028953 0)
(-0.0139214 -0.00661995 0)
(-0.01442 -0.0070846 0)
(-0.0145264 -0.00661935 0)
(-0.0144569 -0.00591975 0)
(-0.0143083 -0.00520315 0)
(-0.0141158 -0.00452484 0)
(-0.0138852 -0.0038902 0)
(-0.0136122 -0.00329881 0)
(-0.0132942 -0.00275432 0)
(-0.0129343 -0.00226323 0)
(-0.0125416 -0.00183236 0)
(-0.0121298 -0.00146686 0)
(-0.0117142 -0.00116595 0)
(-0.0113078 -0.000924344 0)
(-0.0109162 -0.000737437 0)
(-0.0105492 -0.00059464 0)
(-0.0102133 -0.000491723 0)
(-0.00990365 -0.000420365 0)
(-0.00961738 -0.000373523 0)
(-0.00935397 -0.000346346 0)
(-0.00911334 -0.000333613 0)
(-0.0088923 -0.000330554 0)
(-0.00868731 -0.000334369 0)
(-0.00849664 -0.000342978 0)
(-0.00831888 -0.000354855 0)
(-0.00815201 -0.000369 0)
(-0.00799463 -0.000384542 0)
(-0.0078463 -0.000400684 0)
(-0.00770553 -0.000417069 0)
(-0.00757052 -0.000433657 0)
(-0.00744134 -0.000450155 0)
(-0.00731713 -0.000466368 0)
(-0.00719582 -0.000483109 0)
(-0.00707817 -0.000500742 0)
(-0.00696657 -0.000518366 0)
(-0.0068604 -0.000535454 0)
(-0.00675618 -0.000552066 0)
(-0.00665287 -0.000568323 0)
(-0.00655314 -0.000583847 0)
(-0.00645758 -0.000598318 0)
(-0.00636261 -0.000612159 0)
(-0.0062661 -0.000625852 0)
(-0.00617088 -0.000638552 0)
(-0.0060809 -0.00064872 0)
(-0.00599448 -0.000657135 0)
(-0.00590679 -0.000665238 0)
(-0.00581829 -0.000673806 0)
(-0.00573323 -0.000681963 0)
(-0.00565259 -0.000688218 0)
(-0.00557229 -0.000692508 0)
(-0.0054887 -0.000696447 0)
(-0.00540329 -0.000701149 0)
(-0.00532047 -0.000705544 0)
(-0.00524152 -0.000707483 0)
(-0.00516269 -0.000706332 0)
(-0.00507972 -0.000704192 0)
(-0.00499267 -0.000703339 0)
(-0.00490559 -0.000703947 0)
(-0.00482168 -0.000703847 0)
(-0.00473949 -0.000701174 0)
(-0.00465433 -0.000696597 0)
(-0.00456351 -0.000692894 0)
(-0.00446909 -0.000692528 0)
(-0.00437602 -0.000695534 0)
(-0.00428756 -0.000699614 0)
(-0.00420241 -0.000702237 0)
(-0.00411618 -0.000702893 0)
(-0.00402579 -0.000703685 0)
(-0.0039325 -0.000707195 0)
(-0.00384095 -0.000714291 0)
(-0.00375516 -0.000723153 0)
(-0.00367574 -0.000730296 0)
(-0.00359902 -0.000732756 0)
(-0.00351944 -0.000731064 0)
(-0.003434 -0.00072678 0)
(-0.00334325 -0.000723531 0)
(-0.00325086 -0.000723216 0)
(-0.00316072 -0.000725161 0)
(-0.0030739 -0.000727463 0)
(-0.00298825 -0.000728081 0)
(-0.00290056 -0.000726738 0)
(-0.00280898 -0.000725026 0)
(-0.00271394 -0.000725096 0)
(-0.00261901 -0.000728637 0)
(-0.00252755 -0.00073513 0)
(-0.00244159 -0.00074218 0)
(-0.00236213 -0.000746712 0)
(-0.00228495 -0.000747467 0)
(-0.00220447 -0.000744013 0)
(-0.00211851 -0.000737191 0)
(-0.00202597 -0.000729647 0)
(-0.0019274 -0.000724912 0)
(-0.00182788 -0.000724985 0)
(-0.00173174 -0.000729664 0)
(-0.00163972 -0.000737075 0)
(-0.00155357 -0.000743951 0)
(-0.00147344 -0.000747614 0)
(-0.0013943 -0.000747346 0)
(-0.00131216 -0.000743274 0)
(-0.00122507 -0.000736033 0)
(-0.00113359 -0.000728032 0)
(-0.00103873 -0.000722678 0)
(-0.0009411 -0.000720918 0)
(-0.000845435 -0.000722813 0)
(-0.00075238 -0.000727262 0)
(-0.000663153 -0.000732579 0)
(-0.000578185 -0.000736711 0)
(-0.000496693 -0.000737707 0)
(-0.00041534 -0.000735197 0)
(-0.000332104 -0.000729062 0)
(-0.000246044 -0.000721263 0)
(-0.000156493 -0.000713115 0)
(-6.40131e-05 -0.000706409 0)
(3.06923e-05 -0.000701863 0)
(0.00012569 -0.00069988 0)
(0.000219097 -0.000700197 0)
(0.000310091 -0.000702094 0)
(0.000398145 -0.000704566 0)
(0.000483152 -0.000706492 0)
(0.000565552 -0.000706827 0)
(0.000646325 -0.000704846 0)
(0.000726786 -0.000700317 0)
(0.000808081 -0.000693544 0)
(0.00089097 -0.000685226 0)
(0.000975977 -0.000676223 0)
(0.00106372 -0.00066733 0)
(0.00115446 -0.000658855 0)
(0.00124686 -0.00065092 0)
(0.00133926 -0.000644418 0)
(0.00143112 -0.000640036 0)
(0.00152211 -0.000637886 0)
(0.00161187 -0.00063773 0)
(0.00170007 -0.000639091 0)
(0.00178652 -0.000641346 0)
(0.00187127 -0.000643854 0)
(0.001954 -0.000645779 0)
(0.00203447 -0.000646829 0)
(0.00211301 -0.000646735 0)
(0.00218996 -0.000645285 0)
(0.00226573 -0.000642324 0)
(0.00234081 -0.000637732 0)
(0.0024157 -0.000631348 0)
(0.00249032 -0.000622898 0)
(0.00256437 -0.000612697 0)
(0.00263804 -0.000600944 0)
(0.00271143 -0.00058778 0)
(0.00278463 -0.000573279 0)
(0.00285782 -0.000557476 0)
(0.0029315 -0.00054048 0)
(0.00300663 -0.000522746 0)
(0.00308307 -0.000505251 0)
(0.0031587 -0.000488097 0)
(0.00323286 -0.000469859 0)
(0.00330652 -0.000450177 0)
(0.00338006 -0.000429354 0)
(0.00345401 -0.000408927 0)
(0.00352851 -0.000388261 0)
(0.00360334 -0.000366586 0)
(0.0036785 -0.000343479 0)
(0.00375409 -0.000318668 0)
(0.00383015 -0.000292101 0)
(0.00390668 -0.000263943 0)
(0.00398382 -0.000234117 0)
(0.00406193 -0.000202527 0)
(0.00414144 -0.000168993 0)
(0.00422276 -0.000133302 0)
(0.0043063 -9.52584e-05 0)
(0.00439252 -5.47363e-05 0)
(0.00448197 -1.17211e-05 0)
(0.00457534 3.37195e-05 0)
(0.00467347 8.13683e-05 0)
(0.00477737 0.000130819 0)
(0.00488822 0.000181381 0)
(0.00500738 0.000231984 0)
(0.00513635 0.000281081 0)
(0.00527676 0.000326504 0)
(0.00543027 0.000365245 0)
(0.00559846 0.000393202 0)
(0.0057825 0.000404923 0)
(0.00598268 0.000393362 0)
(0.00619768 0.00034979 0)
(0.0064236 0.000263998 0)
(0.00665322 0.000125383 0)
(0.0068761 -7.40607e-05 0)
(0.00708486 -0.000331908 0)
(0.00725836 -0.000625743 0)
(0.00735825 -0.000910101 0)
(0.00737814 -0.0011673 0)
(0.00733236 -0.00137858 0)
(0.00724341 -0.00152322 0)
(0.00713418 -0.00157422 0)
(0.00701088 -0.00146237 0)
(0.00683576 -0.00100528 0)
(0.00648473 0.00012637 0)
(0.00564112 0.00196574 0)
(0.00354808 0.000818196 0)
(0.000835914 -0.0131265 0)
(-0.00395716 0.0542891 0)
(-0.008476 0.0167234 0)
(-0.01141 -0.000330682 0)
(-0.0128233 -0.00542374 0)
(-0.0134272 -0.00649276 0)
(-0.0136503 -0.00626487 0)
(-0.0136833 -0.00563207 0)
(-0.0136171 -0.00490589 0)
(-0.0134902 -0.00418828 0)
(-0.0133167 -0.00350867 0)
(-0.013101 -0.00287661 0)
(-0.0128457 -0.00229817 0)
(-0.0125553 -0.00177883 0)
(-0.0122366 -0.00132299 0)
(-0.0118986 -0.000932965 0)
(-0.0115513 -0.000607735 0)
(-0.0112038 -0.000343037 0)
(-0.0108636 -0.000132877 0)
(-0.0105365 2.78767e-05 0)
(-0.0102268 0.000151105 0)
(-0.00993679 0.000245179 0)
(-0.00966741 0.000315844 0)
(-0.00941687 0.000366926 0)
(-0.00918226 0.000403305 0)
(-0.00896314 0.000429309 0)
(-0.0087591 0.000447511 0)
(-0.00856897 0.000459759 0)
(-0.00839133 0.000467581 0)
(-0.0082242 0.000472224 0)
(-0.00806643 0.000474578 0)
(-0.00791771 0.000475233 0)
(-0.0077765 0.000474634 0)
(-0.00764109 0.000473173 0)
(-0.00751223 0.000471172 0)
(-0.00739097 0.000468589 0)
(-0.00727459 0.00046444 0)
(-0.00716 0.000458901 0)
(-0.00704861 0.000452947 0)
(-0.00694146 0.000446938 0)
(-0.00683594 0.000440887 0)
(-0.00673115 0.000434866 0)
(-0.0066298 0.000429176 0)
(-0.00653289 0.000423926 0)
(-0.0064373 0.000418708 0)
(-0.00634102 0.000413002 0)
(-0.00624639 0.000406728 0)
(-0.00615568 0.000400108 0)
(-0.00606678 0.000394063 0)
(-0.00597624 0.000388314 0)
(-0.00588463 0.000382494 0)