/*--------------------------------*- C++ -*----------------------------------*\
  =========                 |
  \\      /  F ield         | OpenFOAM: The Open Source CFD Toolbox
   \\    /   O peration     | Website:  https://openfoam.org
    \\  /    A nd           | Version:  12
     \\/     M anipulation  |
\*---------------------------------------------------------------------------*/
FoamFile
{
    format      ascii;
    class       volScalarField;
    location    "10.04";
    object      T;
}
// * * * * * * * * * * * * * * * * * * * * * * * * * * * * * * * * * * * * * //

dimensions      [0 0 0 1 0 0 0];

internalField   nonuniform List<scalar> 
40000
(
298.488
294.301
293.407
293.195
293.139
293.123
293.118
293.116
293.115
293.115
293.115
293.115
293.115
293.115
293.115
293.115
293.115
293.115
293.115
293.115
293.115
293.115
293.115
293.115
293.115
293.115
293.115
293.115
293.115
293.115
293.115
293.115
293.115
293.115
293.115
293.115
293.115
293.115
293.115
293.115
293.115
293.115
293.115
293.115
293.115
293.115
293.115
293.115
293.115
293.115
293.115
293.115
293.115
293.115
293.115
293.115
293.115
293.115
293.115
293.115
293.115
293.115
293.115
293.115
293.115
293.115
293.115
293.115
293.115
293.115
293.115
293.115
293.115
293.115
293.115
293.115
293.115
293.115
293.115
293.115
293.115
293.115
293.115
293.115
293.115
293.115
293.115
293.115
293.115
293.115
293.115
293.115
293.115
293.115
293.115
293.115
293.115
293.115
293.114
293.112
293.109
293.103
293.093
293.077
293.054
293.022
292.98
292.927
292.863
292.783
292.693
292.593
292.489
292.384
292.281
292.185
292.094
292.011
291.936
291.87
291.81
291.758
291.712
291.67
291.629
291.59
291.551
291.51
291.467
291.419
291.368
291.311
291.249
291.183
291.113
291.037
290.959
290.879
290.797
290.718
290.642
290.573
290.513
290.463
290.425
290.397
290.377
290.363
290.355
290.349
290.344
290.34
290.337
290.333
290.329
290.325
290.32
290.314
290.308
290.302
290.296
290.289
290.282
290.273
290.265
290.256
290.248
290.239
290.23
290.22
290.211
290.202
290.192
290.183
290.173
290.164
290.154
290.144
290.134
290.125
290.115
290.105
290.095
290.084
290.074
290.063
290.052
290.041
290.028
290.012
289.991
289.963
289.921
289.873
289.805
289.717
289.601
289.443
289.156
288.78
298.762
0.7537209987640381
-0.030875762924551964
-0.1960725486278534
-0.23512910306453705
-0.2457132488489151
-0.2481658160686493
-0.24898627400398254
-0.2498045563697815
-0.2498086839914322
-0.24981117248535156
-0.24981370568275452
-0.24981577694416046
-0.24981722235679626
-0.2498185634613037
-0.24981948733329773
-0.24982009828090668
-0.24982064962387085
-0.24982112646102905
-0.2498215287923813
-0.2498219609260559
-0.2498224377632141
-0.24982291460037231
-0.2498234510421753
-0.24982404708862305
-0.24982471764087677
-0.24982544779777527
-0.24982625246047974
-0.2498270869255066
-0.24982798099517822
-0.24982890486717224
-0.24982988834381104
-0.2498309165239334
-0.24983201920986176
-0.24983316659927368
-0.2498343586921692
-0.24983558058738708
-0.24983684718608856
-0.2498382031917572
-0.24983960390090942
-0.24984110891819
-0.24984267354011536
-0.2498442828655243
-0.2498459815979004
-0.24984773993492126
-0.2498496174812317
-0.24985161423683167
-0.24985371530056
-0.24985606968402863
-0.2498585730791092
-0.2498611956834793
-0.24986392259597778
-0.249866783618927
-0.24986982345581055
-0.2498731017112732
-0.24987657368183136
-0.24988028407096863
-0.24988432228565216
-0.24988871812820435
-0.24989347159862518
-0.24989859759807587
-0.24990405142307281
-0.24990980327129364
-0.24991607666015625
-0.2499227523803711
-0.249929741024971
-0.24993713200092316
-0.24994517862796783
-0.249953955411911
-0.249963641166687
-0.24997392296791077
-0.24998492002487183
-0.24999651312828064
-0.25000879168510437
-0.25002217292785645
-0.2500370144844055
-0.2500533163547516
-0.2500707507133484
-0.2500893771648407
-0.25010988116264343
-0.25013238191604614
-0.25015687942504883
-0.25018373131752014
-0.2502131164073944
-0.25024664402008057
-0.2502824664115906
-0.2503203749656677
-0.25036197900772095
-0.25040775537490845
-0.2504592537879944
-0.25051647424697876
-0.2505795359611511
-0.25064924359321594
-0.25072750449180603
-0.25081413984298706
-0.2509100139141083
-0.2518294155597687
-0.2543872594833374
-0.25777193903923035
-0.26603811979293823
-0.27918267250061035
-0.3020657002925873
-0.3362948000431061
-0.3851144313812256
-0.44770973920822144
-0.5257110595703125
-0.6174904704093933
-0.7214260697364807
-0.8350861072540283
-0.956861674785614
-1.0769916772842407
-1.1906181573867798
-1.2920749187469482
-1.38134765625
-1.4576373100280762
-1.521765947341919
-1.5745402574539185
-1.6167694330215454
-1.6508901119232178
-1.6769118309020996
-1.696454405784607
-1.7103286981582642
-1.720166563987732
-1.729217529296875
-1.739100694656372
-1.7522488832473755
-1.7702794075012207
-1.795627474784851
-1.831538438796997
-1.876390814781189
-1.930180311203003
-1.9880318641662598
-2.0466935634613037
-2.102102518081665
-2.1550636291503906
-2.203137159347534
-2.246323585510254
-2.2846145629882812
-2.3180081844329834
-2.346510171890259
-2.369309663772583
-2.386411666870117
-2.399441957473755
-2.4092135429382324
-2.4165408611297607
-2.4206159114837646
-2.4246859550476074
-2.427945137023926
-2.431205987930298
-2.433659076690674
-2.4369282722473145
-2.4393930435180664
-2.442676067352295
-2.445966958999634
-2.449265718460083
-2.4525723457336426
-2.455888032913208
-2.4592127799987793
-2.462545156478882
-2.465884208679199
-2.469226598739624
-2.47175931930542
-2.4742913246154785
-2.476013660430908
-2.4777393341064453
-2.4794692993164062
-2.481203079223633
-2.4821276664733887
-2.4822397232055664
-2.482351541519165
-2.482459783554077
-2.4817519187927246
-2.480229616165161
-2.4787025451660156
-2.4771697521209717
-2.4756293296813965
-2.472459554672241
-2.470092296600342
-2.4669041633605957
-2.4637057781219482
-2.460493803024292
-2.457266092300415
-2.4540181159973145
-2.4507453441619873
-2.4474382400512695
-2.4440853595733643
-2.442302942276001
-2.4428842067718506
-2.4498705863952637
-2.464040517807007
-2.4869749546051025
-2.52109694480896
-2.570983648300171
-2.635127544403076
-2.719632625579834
-2.8113129138946533
-2.967600107192993
-3.208371877670288
-3.48865008354187
288.675
299.081
0.8112668395042419
-0.015667632222175598
-0.1951027363538742
-0.2358355075120926
-0.24566560983657837
-0.24896234273910522
-0.2489878386259079
-0.24981540441513062
-0.2498236894607544
-0.24982956051826477
-0.2498343288898468
-0.24983832240104675
-0.24984124302864075
-0.24984346330165863
-0.24984535574913025
-0.24984689056873322
-0.24984821677207947
-0.24984948337078094
-0.24985066056251526
-0.24985191226005554
-0.2498532235622406
-0.24985453486442566
-0.2498558759689331
-0.24985724687576294
-0.24985864758491516
-0.24986004829406738
-0.249861478805542
-0.2498629093170166
-0.24986441433429718
-0.24986599385738373
-0.24986766278743744
-0.2498694360256195
-0.24987128376960754
-0.24987322092056274
-0.2498752772808075
-0.2498774230480194
-0.2498796582221985
-0.24988201260566711
-0.2498844712972641
-0.24988707900047302
-0.2498898208141327
-0.24989274144172668
-0.24989590048789978
-0.249899223446846
-0.24990274012088776
-0.24990645051002502
-0.2499103546142578
-0.24991440773010254
-0.2499188482761383
-0.24992361664772034
-0.24992862343788147
-0.2499338835477829
-0.24993938207626343
-0.24994510412216187
-0.2499510794878006
-0.24995753169059753
-0.24996431171894073
-0.24997152388095856
-0.2499791830778122
-0.2499871850013733
-0.2499956488609314
-0.2500046193599701
-0.2500140368938446
-0.2500240206718445
-0.2500348389148712
-0.25004658102989197
-0.25005948543548584
-0.25007307529449463
-0.25008776783943176
-0.2501032054424286
-0.2501193881034851
-0.250137060880661
-0.25015631318092346
-0.2501770257949829
-0.250199556350708
-0.25022441148757935
-0.25025177001953125
-0.25028133392333984
-0.250312864780426
-0.25034675002098083
-0.25038260221481323
-0.25042155385017395
-0.2504645586013794
-0.2505120635032654
-0.2505645751953125
-0.25061994791030884
-0.25068026781082153
-0.2507481575012207
-0.25082260370254517
-0.25090429186820984
-0.25099533796310425
-0.2510968744754791
-0.25121045112609863
-0.25215303897857666
-0.2539278268814087
-0.2573472857475281
-0.2648419737815857
-0.2780299782752991
-0.30178165435791016
-0.34095728397369385
-0.39878273010253906
-0.4784895181655884
-0.5808855891227722
-0.7051628232002258
-0.8456352353096008
-0.9982614517211914
-1.1557395458221436
-1.3123899698257446
-1.4552239179611206
-1.5793899297714233
-1.683253288269043
-1.767637848854065
-1.8333622217178345
-1.8844958543777466
-1.9234726428985596
-1.951110601425171
-1.970654845237732
-1.9821065664291382
-1.9879008531570435
-1.9888544082641602
-1.9857821464538574
-1.983551025390625
-1.9797114133834839
-1.977503776550293
-1.9809812307357788
-1.9933971166610718
-2.0155506134033203
-2.046633005142212
-2.0833938121795654
-2.1225759983062744
-2.1593055725097656
-2.1927692890167236
-2.220529079437256
-2.242586135864258
-2.259746789932251
-2.2720143795013428
-2.2810115814208984
-2.2851171493530273
-2.2875778675079346
-2.2875893115997314
-2.2859668731689453
-2.284335136413574
-2.2826991081237793
-2.2818737030029297
-2.2818615436553955
-2.281852960586548
-2.2826616764068604
-2.2851004600524902
-2.286735773086548
-2.2891902923583984
-2.291653871536255
-2.2949378490448
-2.298229694366455
-2.2999069690704346
-2.302403450012207
-2.304095506668091
-2.3049824237823486
-2.3058736324310303
-2.305147409439087
-2.3036131858825684
-2.3020806312561035
-2.2997374534606934
-2.2957701683044434
-2.2909884452819824
-2.2853922843933105
-2.278982162475586
-2.271756172180176
-2.2637128829956055
-2.2548508644104004
-2.2451698780059814
-2.2346696853637695
-2.2233502864837646
-2.2112128734588623
-2.1990678310394287
-2.1861021518707275
-2.1731252670288086
-2.1593263149261475
-2.1455156803131104
-2.132502794265747
-2.118661880493164
-2.1056160926818848
-2.0941734313964844
-2.082698106765747
-2.0736095905303955
-2.0660903453826904
-2.0625667572021484
-2.067894220352173
-2.0795624256134033
-2.101508378982544
-2.133363962173462
-2.179574966430664
-2.2224810123443604
-2.29370379447937
-2.413214683532715
-2.577667474746704
-2.7954728603363037
-3.0786237716674805
-3.4743831157684326
288.594
299.376
0.9099637269973755
0.01312265545129776
-0.18777750432491302
-0.23412856459617615
-0.24559760093688965
-0.24892133474349976
-0.2489680051803589
-0.2498062252998352
-0.24982520937919617
-0.24983860552310944
-0.24984773993492126
-0.2498546689748764
-0.249860018491745
-0.2498643547296524
-0.24986842274665833
-0.2498718947172165
-0.2498750537633896
-0.24987784028053284
-0.2498803585767746
-0.24988271296024323
-0.2498849630355835
-0.24988716840744019
-0.2498893141746521
-0.2498914897441864
-0.24989371001720428
-0.24989598989486694
-0.24989818036556244
-0.24990034103393555
-0.24990253150463104
-0.2499048262834549
-0.2499072402715683
-0.24990975856781006
-0.24991239607334137
-0.24991515278816223
-0.24991801381111145
-0.24992097914218903
-0.24992407858371735
-0.2499273419380188
-0.24993076920509338
-0.2499343454837799
-0.24993811547756195
-0.2499420940876007
-0.24994628131389618
-0.24995076656341553
-0.24995550513267517
-0.24996046721935272
-0.249965637922287
-0.24997110664844513
-0.24997678399085999
-0.24998268485069275
-0.24998882412910461
-0.24999529123306274
-0.2500022351741791
-0.25000959634780884
-0.25001734495162964
-0.2500254213809967
-0.250033974647522
-0.25004303455352783
-0.250052809715271
-0.25006338953971863
-0.2500745356082916
-0.25008624792099
-0.2500985264778137
-0.2501116693019867
-0.2501257658004761
-0.2501407563686371
-0.25015655159950256
-0.25017353892326355
-0.2501918077468872
-0.2502114176750183
-0.2502322793006897
-0.25025561451911926
-0.2502804398536682
-0.2503071427345276
-0.25033605098724365
-0.25036686658859253
-0.25039973855018616
-0.25043579936027527
-0.2504744827747345
-0.25051626563072205
-0.2505616843700409
-0.25060969591140747
-0.25066259503364563
-0.25072115659713745
-0.2507849633693695
-0.25085538625717163
-0.2509324550628662
-0.25101742148399353
-0.2511104345321655
-0.2512144148349762
-0.2513314485549927
-0.25146597623825073
-0.25242969393730164
-0.2542274594306946
-0.2584803104400635
-0.2660083472728729
-0.28168004751205444
-0.3095360994338989
-0.3552476465702057
-0.4236687421798706
-0.5204632878303528
-0.6448080539703369
-0.7966991662979126
-0.968022882938385
-1.150671362876892
-1.3340914249420166
-1.5085675716400146
-1.66193425655365
-1.789313554763794
-1.8899109363555908
-1.9661788940429688
-2.0229904651641846
-2.0627803802490234
-2.0912351608276367
-2.1107921600341797
-2.122265338897705
-2.128089189529419
-2.129072666168213
-2.126845598220825
-2.121401786804199
-2.1143534183502197
-2.1048741340637207
-2.0970218181610107
-2.0940308570861816
-2.0959041118621826
-2.1042613983154297
-2.117478609085083
-2.1339263916015625
-2.150353193283081
-2.1643118858337402
-2.1741855144500732
-2.179168462753296
-2.1800663471221924
-2.1760687828063965
-2.1687984466552734
-2.159067153930664
-2.1476922035217285
-2.1354870796203613
-2.1232681274414062
-2.1118521690368652
-2.101243019104004
-2.0922577381134033
-2.085710048675537
-2.0807912349700928
-2.077505588531494
-2.076664447784424
-2.0766468048095703
-2.077453374862671
-2.0798940658569336
-2.0815348625183105
-2.0848097801208496
-2.087283134460449
-2.0897650718688965
-2.090632200241089
-2.091506242752075
-2.091573715209961
-2.090832233428955
-2.088469982147217
-2.085296869277954
-2.0804998874664307
-2.07407808303833
-2.0668418407440186
-2.057978391647339
-2.0474863052368164
-2.035365104675293
-2.0216128826141357
-2.0070414543151855
-1.9916489124298096
-1.9746251106262207
-1.9567806720733643
-1.9381154775619507
-1.918629765510559
-1.899133324623108
-1.8788158893585205
-1.8576781749725342
-1.837342619895935
-1.8169962167739868
-1.7966388463974
-1.7770808935165405
-1.7583222389221191
-1.7411694526672363
-1.7256207466125488
-1.7124762535095215
-1.7025402784347534
-1.6965997219085693
-1.6978785991668701
-1.7063257694244385
-1.7225887775421143
-1.7495039701461792
-1.7876712083816528
-1.8117848634719849
-1.880968451499939
-1.9882686138153076
-2.1365103721618652
-2.335820198059082
-2.5974419116973877
-2.93416428565979
-3.369570732116699
288.584
299.643
1.0117589235305786
0.0483744814991951
-0.17811818420886993
-0.23166050016880035
-0.24473673105239868
-0.24806618690490723
-0.24893946945667267
-0.249787837266922
-0.24981312453746796
-0.24983204901218414
-0.2498472034931183
-0.24985842406749725
-0.24986745417118073
-0.2498749941587448
-0.24988114833831787
-0.24988646805286407
-0.24989134073257446
-0.24989545345306396
-0.24989919364452362
-0.24990269541740417
-0.2499060332775116
-0.2499094009399414
-0.24991261959075928
-0.2499157339334488
-0.24991878867149353
-0.24992188811302185
-0.24992497265338898
-0.24992801249027252
-0.24993100762367249
-0.24993407726287842
-0.2499372661113739
-0.24994054436683655
-0.24994392693042755
-0.2499474287033081
-0.2499510645866394
-0.24995481967926025
-0.24995872378349304
-0.24996277689933777
-0.2499670535326004
-0.24997147917747498
-0.24997612833976746
-0.24998094141483307
-0.249985933303833
-0.24999111890792847
-0.24999657273292542
-0.25000226497650146
-0.250008225440979
-0.2500144839286804
-0.2500211298465729
-0.2500280737876892
-0.2500353455543518
-0.25004300475120544
-0.25005120038986206
-0.25005999207496643
-0.2500693202018738
-0.25007903575897217
-0.25008928775787354
-0.25010013580322266
-0.25011155009269714
-0.2501235902309418
-0.2501363456249237
-0.25014999508857727
-0.25016459822654724
-0.2501799464225769
-0.25019654631614685
-0.2502141296863556
-0.2502323389053345
-0.25025153160095215
-0.2502729296684265
-0.25029632449150085
-0.25032126903533936
-0.25034815073013306
-0.25037679076194763
-0.2504078447818756
-0.25044095516204834
-0.2504764497280121
-0.25051504373550415
-0.2505567669868469
-0.25060129165649414
-0.2506486773490906
-0.2507008910179138
-0.2507583498954773
-0.2508206367492676
-0.2508887052536011
-0.25096356868743896
-0.25104644894599915
-0.25113773345947266
-0.25123798847198486
-0.25134968757629395
-0.2514754831790924
-0.2516174018383026
-0.2525906264781952
-0.2535845637321472
-0.25704193115234375
-0.2637777626514435
-0.2770349383354187
-0.3016738295555115
-0.3433687090873718
-0.409397691488266
-0.5062294006347656
-0.6346664428710938
-0.7947115898132324
-0.9790396094322205
-1.1771063804626465
-1.377573013305664
-1.5658307075500488
-1.7297309637069702
-1.8619678020477295
-1.9617393016815186
-2.03475284576416
-2.0858864784240723
-2.120818614959717
-2.142800807952881
-2.1567013263702393
-2.1649584770202637
-2.168383836746216
-2.168598175048828
-2.1655948162078857
-2.16017746925354
-2.152334213256836
-2.143674373626709
-2.1350104808807373
-2.1279687881469727
-2.1233561038970947
-2.120349407196045
-2.1189308166503906
-2.1183011531829834
-2.116022825241089
-2.1112847328186035
-2.1024575233459473
-2.0887269973754883
-2.0717155933380127
-2.05061411857605
-2.0278584957122803
-2.0034523010253906
-1.9774020910263062
-1.9529566764831543
-1.9284999370574951
-1.906473994255066
-1.8876961469650269
-1.8713555335998535
-1.8582630157470703
-1.8484232425689697
-1.841032862663269
-1.8369066715240479
-1.8352357149124146
-1.8352071046829224
-1.8368208408355713
-1.8400752544403076
-1.8425333499908447
-1.8466285467147827
-1.8499220609664917
-1.8524119853973389
-1.8532847166061401
-1.8541609048843384
-1.8534151315689087
-1.8502326011657715
-1.8462365865707397
-1.8406143188476562
-1.8325536251068115
-1.8236761093139648
-1.8115460872650146
-1.7985975742340088
-1.7832063436508179
-1.766993522644043
-1.748336911201477
-1.728858232498169
-1.7077467441558838
-1.6858129501342773
-1.662245750427246
-1.6378575563430786
-1.6134599447250366
-1.5882421731948853
-1.562205195426941
-1.5377826690673828
-1.5125373601913452
-1.488093376159668
-1.4644498825073242
-1.4424201250076294
-1.4220049381256104
-1.4031974077224731
-1.3868052959442139
-1.3736292123794556
-1.3644685745239258
-1.3617340326309204
-1.3645644187927246
-1.3744926452636719
-1.3927431106567383
-1.4211139678955078
-1.4349676370620728
-1.4873220920562744
-1.5735087394714355
-1.6973254680633545
-1.8649647235870361
-2.089735746383667
-2.384795904159546
-2.7637252807617188
-3.2412827014923096
288.671
299.884
1.1087526082992554
0.0828837901353836
-0.16847729682922363
-0.2292381078004837
-0.24390175938606262
-0.2480372041463852
-0.24891138076782227
-0.24976813793182373
-0.24979719519615173
-0.24981974065303802
-0.24983802437782288
-0.24985316395759583
-0.2498650848865509
-0.24987509846687317
-0.24988387525081635
-0.2498912662267685
-0.24989786744117737
-0.24990375339984894
-0.2499091625213623
-0.2499140501022339
-0.2499186247587204
-0.24992290139198303
-0.24992702901363373
-0.2499309778213501
-0.2499348372220993
-0.2499386966228485
-0.24994264543056488
-0.24994656443595886
-0.24995043873786926
-0.24995428323745728
-0.24995817244052887
-0.24996215105056763
-0.24996623396873474
-0.2499704658985138
-0.24997475743293762
-0.2499791383743286
-0.24998366832733154
-0.24998828768730164
-0.24999308586120605
-0.2499980330467224
-0.25000321865081787
-0.25000858306884766
-0.2500143051147461
-0.25002026557922363
-0.2500264644622803
-0.2500329315662384
-0.250039666891098
-0.2500467896461487
-0.25005438923835754
-0.250062495470047
-0.2500709295272827
-0.2500797510147095
-0.25008904933929443
-0.25009894371032715
-0.2501092851161957
-0.2501200735569
-0.25013142824172974
-0.2501436173915863
-0.2501565217971802
-0.25017017126083374
-0.2501845061779022
-0.2501998543739319
-0.25021597743034363
-0.25023287534713745
-0.250250905752182
-0.2502700686454773
-0.2502903938293457
-0.2503128945827484
-0.250337153673172
-0.2503630518913269
-0.2503906786441803
-0.2504205107688904
-0.2504526674747467
-0.25048717856407166
-0.2505241632461548
-0.2505645155906677
-0.25060755014419556
-0.2506537437438965
-0.2507040500640869
-0.25075840950012207
-0.2508169710636139
-0.25088122487068176
-0.2509508728981018
-0.25102758407592773
-0.2511124014854431
-0.2512058913707733
-0.2513080835342407
-0.25142306089401245
-0.2515517473220825
-0.251696914434433
-0.25185906887054443
-0.2528538405895233
-0.2546902000904083
-0.25899603962898254
-0.26820024847984314
-0.2855496406555176
-0.3175276517868042
-0.3714176118373871
-0.453685462474823
-0.5699975490570068
-0.7219659686088562
-0.9038931131362915
-1.1068557500839233
-1.3170723915100098
-1.518325924873352
-1.6968234777450562
-1.8428536653518677
-1.9523649215698242
-2.0302326679229736
-2.082165479660034
-2.1146621704101562
-2.1350247859954834
-2.1464993953704834
-2.152334690093994
-2.1541519165039062
-2.1535592079162598
-2.1497461795806885
-2.144329786300659
-2.137288808822632
-2.128624439239502
-2.119959831237793
-2.1104791164398193
-2.100170373916626
-2.089836359024048
-2.0778589248657227
-2.0650460720062256
-2.0497663021087646
-2.0303916931152344
-2.00692081451416
-1.9801615476608276
-1.9493027925491333
-1.9143471717834473
-1.8777319192886353
-1.8394606113433838
-1.8011656999588013
-1.7644761800765991
-1.728588581085205
-1.6959377527236938
-1.6665215492248535
-1.6411685943603516
-1.62069833278656
-1.6043051481246948
-1.5928078889846802
-1.586207389831543
-1.5828824043273926
-1.5828341245651245
-1.585247278213501
-1.5893062353134155
-1.595007061958313
-1.5999114513397217
-1.6048290729522705
-1.6097556352615356
-1.6138755083084106
-1.6163755655288696
-1.6172538995742798
-1.6165069341659546
-1.6133224964141846
-1.6085108518600464
-1.6004465818405151
-1.5915627479553223
-1.579424500465393
-1.5664634704589844
-1.5502455234527588
-1.5323933362960815
-1.512906551361084
-1.4909725189208984
-1.4682142734527588
-1.4438202381134033
-1.4186021089553833
-1.391749382019043
-1.36488676071167
-1.3372024297714233
-1.3086984157562256
-1.28099524974823
-1.2532846927642822
-1.2255640029907227
-1.1994582414627075
-1.1733478307724
-1.1496671438217163
-1.1276007890701294
-1.1079583168029785
-1.0915472507476807
-1.0783592462539673
-1.0700145959854126
-1.0689131021499634
-1.0717275142669678
-1.0815037488937378
-1.099190354347229
-1.114532232284546
-1.1349962949752808
-1.1974008083343506
-1.2913907766342163
-1.424254059791565
-1.6055904626846313
-1.8499140739440918
-2.17189359664917
-2.587611436843872
-3.1125051975250244
288.739
300.101
1.202099323272705
0.11663363873958588
-0.15720997750759125
-0.2260257750749588
-0.2430870682001114
-0.24801959097385406
-0.24889086186885834
-0.24974963068962097
-0.24978047609329224
-0.24980528652668
-0.24982541799545288
-0.24984270334243774
-0.24985715746879578
-0.24986916780471802
-0.24987953901290894
-0.24988895654678345
-0.2498970329761505
-0.2499045729637146
-0.24991121888160706
-0.24991744756698608
-0.24992313981056213
-0.24992847442626953
-0.24993355572223663
-0.24993844330310822
-0.24994322657585144
-0.2499479055404663
-0.24995258450508118
-0.24995727837085724
-0.24996188282966614
-0.24996645748615265
-0.24997109174728394
-0.24997568130493164
-0.24998033046722412
-0.24998506903648376
-0.24998988211154938
-0.24999478459358215
-0.24999982118606567
-0.2500050961971283
-0.25001052021980286
-0.2500161826610565
-0.2500220239162445
-0.2500280737876892
-0.250034362077713
-0.2500408887863159
-0.2500477731227875
-0.25005513429641724
-0.25006285309791565
-0.25007086992263794
-0.2500791847705841
-0.2500879764556885
-0.2500973343849182
-0.2501070499420166
-0.2501172721385956
-0.25012800097465515
-0.25013938546180725
-0.2501513659954071
-0.2501639425754547
-0.25017717480659485
-0.25019118189811707
-0.25020596385002136
-0.25022122263908386
-0.25023749470710754
-0.25025489926338196
-0.2502734065055847
-0.25029295682907104
-0.2503136098384857
-0.2503359317779541
-0.2503605782985687
-0.2503868043422699
-0.25041502714157104
-0.2504453659057617
-0.25047793984413147
-0.25051364302635193
-0.25055214762687683
-0.25059282779693604
-0.25063610076904297
-0.2506830096244812
-0.2507340908050537
-0.25078919529914856
-0.2508487105369568
-0.25091299414634705
-0.2509837746620178
-0.25106164813041687
-0.2511462867259979
-0.25123846530914307
-0.2513406574726105
-0.2514553666114807
-0.25158336758613586
-0.2517266273498535
-0.25188514590263367
-0.2520636320114136
-0.2530827820301056
-0.2557583451271057
-0.26089975237846375
-0.2717570960521698
-0.2923821806907654
-0.3284400403499603
-0.3888312578201294
-0.4808380901813507
-0.609306812286377
-0.7734324932098389
-0.9675124883651733
-1.178572654724121
-1.3904039859771729
-1.5859743356704712
-1.7530945539474487
-1.8828808069229126
-1.9769803285598755
-2.038639783859253
-2.0776069164276123
-2.098764657974243
-2.1102285385131836
-2.114429235458374
-2.11460542678833
-2.111570358276367
-2.10693621635437
-2.1006858348846436
-2.092815637588501
-2.0841407775878906
-2.0746524333953857
-2.0627264976501465
-2.0491554737091064
-2.033942699432373
-2.015462875366211
-1.9945210218429565
-1.9694888591766357
-1.941167950630188
-1.9079301357269287
-1.8705862760543823
-1.8299487829208374
-1.7852046489715576
-1.7387943267822266
-1.6899127960205078
-1.6418153047561646
-1.5936903953552246
-1.5479693412780762
-1.5054833889007568
-1.4662392139434814
-1.4310534000396729
-1.4007432460784912
-1.3753339052200317
-1.3564629554748535
-1.3433200120925903
-1.336719036102295
-1.335842490196228
-1.3390607833862305
-1.346365213394165
-1.3545039892196655
-1.3642833232879639
-1.3732630014419556
-1.3814409971237183
-1.3896254301071167
-1.3953789472579956
-1.400320291519165
-1.4028244018554688
-1.4028892517089844
-1.4005130529403687
-1.3965071439743042
-1.3892438411712646
-1.3795344829559326
-1.3673778772354126
-1.3527735471725464
-1.3357199430465698
-1.3170288801193237
-1.2966992855072021
-1.273919701576233
-1.2495040893554688
-1.2242627143859863
-1.1973835229873657
-1.1696792840957642
-1.1411529779434204
-1.1126173734664917
-1.0840718746185303
-1.054708480834961
-1.026148796081543
-0.9975823760032654
-0.9698225259780884
-0.9436839818954468
-0.9183554649353027
-0.8946484923362732
-0.8733801245689392
-0.8561732769012451
-0.8414018750190735
-0.832295835018158
-0.8288208246231079
-0.8292709589004517
-0.834991455078125
-0.8490589261054993
-0.8491295576095581
-0.8801718950271606
-0.9429514408111572
-1.0384061336517334
-1.1753106117248535
-1.3653368949890137
-1.6230930089950562
-1.9675930738449097
-2.417539596557617
-2.993715763092041
288.784
300.299
1.2907747030258179
0.14957259595394135
-0.145929753780365
-0.22200731933116913
-0.2422846406698227
-0.24720104038715363
-0.24887678027153015
-0.24973367154598236
-0.2497650384902954
-0.24979065358638763
-0.24981194734573364
-0.24983014166355133
-0.24984633922576904
-0.24985985457897186
-0.24987152218818665
-0.24988216161727905
-0.24989166855812073
-0.24990031123161316
-0.24990831315517426
-0.24991557002067566
-0.24992235004901886
-0.24992866814136505
-0.24993473291397095
-0.24994051456451416
-0.2499462068080902
-0.24995164573192596
-0.24995708465576172
-0.24996241927146912
-0.24996764957904816
-0.24997277557849884
-0.24997791647911072
-0.2499830722808838
-0.24998831748962402
-0.24999359250068665
-0.24999898672103882
-0.25000452995300293
-0.2500101923942566
-0.2500160336494446
-0.2500220537185669
-0.25002825260162354
-0.2500346302986145
-0.25004124641418457
-0.2500481605529785
-0.2500555217266083
-0.2500632405281067
-0.2500711977481842
-0.2500794529914856
-0.2500881254673004
-0.25009727478027344
-0.2501068413257599
-0.25011688470840454
-0.250127375125885
-0.2501384913921356
-0.2501501441001892
-0.2501623034477234
-0.25017502903938293
-0.25018829107284546
-0.25020262598991394
-0.250217467546463
-0.2502329349517822
-0.25024935603141785
-0.2502669095993042
-0.2502855658531189
-0.2503052055835724
-0.2503262162208557
-0.2503487765789032
-0.25037261843681335
-0.2503986358642578
-0.2504269778728485
-0.2504580020904541
-0.25049108266830444
-0.2505267262458801
-0.25056520104408264
-0.25060561299324036
-0.2506491541862488
-0.250696063041687
-0.2507469654083252
-0.2508019804954529
-0.2508612275123596
-0.2509254813194275
-0.2509962022304535
-0.2510729730129242
-0.25115612149238586
-0.25124821066856384
-0.25134995579719543
-0.25146186351776123
-0.2515854835510254
-0.25172263383865356
-0.2518742084503174
-0.2520442008972168
-0.2522388994693756
-0.25327828526496887
-0.2559716999530792
-0.2619419991970062
-0.27200424671173096
-0.29345428943634033
-0.3319551646709442
-0.39397600293159485
-0.48922428488731384
-0.6209329962730408
-0.7899192571640015
-0.987234890460968
-1.1990957260131836
-1.4084810018539429
-1.5975617170333862
-1.7549455165863037
-1.87498939037323
-1.9593455791473389
-2.014524459838867
-2.046206474304199
-2.0616962909698486
-2.0674872398376465
-2.0668296813964844
-2.062145948410034
-2.0550475120544434
-2.0471508502960205
-2.038447856903076
-2.0281293392181396
-2.017003059387207
-2.0034427642822266
-1.9866148233413696
-1.9681413173675537
-1.945591926574707
-1.9205832481384277
-1.8906691074371338
-1.856652021408081
-1.8185296058654785
-1.7762963771820068
-1.72995126247406
-1.6803056001663208
-1.628990888595581
-1.576010823249817
-1.522979974746704
-1.4715336561203003
-1.4224990606307983
-1.3758792877197266
-1.3341009616851807
-1.2955727577209473
-1.2627416849136353
-1.234008550643921
-1.2101976871490479
-1.1921344995498657
-1.1781939268112183
-1.1683638095855713
-1.1610122919082642
-1.1577472686767578
-1.1585676670074463
-1.1626529693603516
-1.1700019836425781
-1.1789872646331787
-1.1887925863265991
-1.19779372215271
-1.2067973613739014
-1.213364839553833
-1.218306064605713
-1.2216155529022217
-1.2216678857803345
-1.2192749977111816
-1.2136218547821045
-1.2055182456970215
-1.1949646472930908
-1.1819599866867065
-1.1665037870407104
-1.148595929145813
-1.1290479898452759
-1.1070482730865479
-1.0842217206954956
-1.059757947921753
-1.034468412399292
-1.0083529949188232
-0.9814150333404541
-0.9536571502685547
-0.926703691482544
-0.8989333510398865
-0.8711621165275574
-0.8433911800384521
-0.8164318799972534
-0.7902860641479492
-0.7641481161117554
-0.739643931388855
-0.7159656286239624
-0.6947435140609741
-0.6775994896888733
-0.6653239130973816
-0.6546507477760315
-0.6479445695877075
-0.6474618911743164
-0.6531131267547607
-0.6468981504440308