/*--------------------------------*- C++ -*----------------------------------*\
  =========                 |
  \\      /  F ield         | OpenFOAM: The Open Source CFD Toolbox
   \\    /   O peration     | Website:  https://openfoam.org
    \\  /    A nd           | Version:  12
     \\/     M anipulation  |
\*---------------------------------------------------------------------------*/
FoamFile
{
    format      ascii;
    class       volVectorField;
    location    "10.04";
    object      U;
}
// * * * * * * * * * * * * * * * * * * * * * * * * * * * * * * * * * * * * * //

dimensions      [0 1 -1 0 0 0 0];

internalField   nonuniform List<vector> 
40000
(
(-0.0119209 0.00835949 0.0)
(-0.0170145 -0.000222585 0.0)
(-0.0148642 -0.00176588 0.0)
(-0.0117321 -0.00152741 0.0)
(-0.00910215 -0.00104135 0.0)
(-0.0072329 -0.000664703 0.0)
(-0.00594351 -0.000419421 0.0)
(-0.00504436 -0.00026733 0.0)
(-0.00440188 -0.00017399 0.0)
(-0.00393134 -0.000115705 0.0)
(-0.00357892 -7.86456e-05 0.0)
(-0.00330964 -5.44044e-05 0.0)
(-0.00310046 -3.80656e-05 0.0)
(-0.00293587 -2.67233e-05 0.0)
(-0.00280514 -1.86129e-05 0.0)
(-0.00270068 -1.26547e-05 0.0)
(-0.00261703 -8.183e-06 0.0)
(-0.00255014 -4.7652e-06 0.0)
(-0.00249697 -2.10844e-06 0.0)
(-0.0024552 -8.26537e-09 0.0)
(-0.00242303 1.66001e-06 0.0)
(-0.00239903 2.95011e-06 0.0)
(-0.00238207 3.87599e-06 0.0)
(-0.00237133 4.42315e-06 0.0)
(-0.00236641 4.64009e-06 0.0)
(-0.00236671 5.14036e-06 0.0)
(-0.00237115 6.07135e-06 0.0)
(-0.00237937 7.46832e-06 0.0)
(-0.00239138 8.59277e-06 0.0)
(-0.00240687 9.43826e-06 0.0)
(-0.00242545 1.01334e-05 0.0)
(-0.00244685 1.07453e-05 0.0)
(-0.00247086 1.13116e-05 0.0)
(-0.00249734 1.18582e-05 0.0)
(-0.0025262 1.23965e-05 0.0)
(-0.00255736 1.29365e-05 0.0)
(-0.00259077 1.34804e-05 0.0)
(-0.0026264 1.40311e-05 0.0)
(-0.00266423 1.45978e-05 0.0)
(-0.00270425 1.51823e-05 0.0)
(-0.00274648 1.57843e-05 0.0)
(-0.00279096 1.64014e-05 0.0)
(-0.00283767 1.70379e-05 0.0)
(-0.0028867 1.7707e-05 0.0)
(-0.00293805 1.84016e-05 0.0)
(-0.00299183 1.91205e-05 0.0)
(-0.0030481 1.98731e-05 0.0)
(-0.00310691 2.0666e-05 0.0)
(-0.00316838 2.14979e-05 0.0)
(-0.0032326 2.23694e-05 0.0)
(-0.00329967 2.32864e-05 0.0)
(-0.00336973 2.42443e-05 0.0)
(-0.00344291 2.52607e-05 0.0)
(-0.00351936 2.63309e-05 0.0)
(-0.00359921 2.74536e-05 0.0)
(-0.00368265 2.86349e-05 0.0)
(-0.00376986 2.98855e-05 0.0)
(-0.00386103 3.12071e-05 0.0)
(-0.0039564 3.26079e-05 0.0)
(-0.00405616 3.40863e-05 0.0)
(-0.00416057 3.56476e-05 0.0)
(-0.00426991 3.73015e-05 0.0)
(-0.00438445 3.90625e-05 0.0)
(-0.00450452 4.09287e-05 0.0)
(-0.00463045 4.29148e-05 0.0)
(-0.00476261 4.50217e-05 0.0)
(-0.00490139 4.72677e-05 0.0)
(-0.00504723 4.96581e-05 0.0)
(-0.00520058 5.22097e-05 0.0)
(-0.00536195 5.49282e-05 0.0)
(-0.00553187 5.78314e-05 0.0)
(-0.00571095 6.09264e-05 0.0)
(-0.00589981 6.42298e-05 0.0)
(-0.00609915 6.77638e-05 0.0)
(-0.0063097 7.15434e-05 0.0)
(-0.00653229 7.5584e-05 0.0)
(-0.00676779 7.99111e-05 0.0)
(-0.00701718 8.45463e-05 0.0)
(-0.0072815 8.95126e-05 0.0)
(-0.00756188 9.48301e-05 0.0)
(-0.00785957 0.000100528 0.0)
(-0.00817588 0.000106634 0.0)
(-0.00851232 0.000113173 0.0)
(-0.00887047 0.000120171 0.0)
(-0.00925211 0.000127671 0.0)
(-0.00965916 0.000135704 0.0)
(-0.0100938 0.000144337 0.0)
(-0.0105584 0.000153578 0.0)
(-0.0110556 0.000163527 0.0)
(-0.0115886 0.000174183 0.0)
(-0.0121608 0.000185667 0.0)
(-0.0127762 0.000198013 0.0)
(-0.0134394 0.000211269 0.0)
(-0.014156 0.000225461 0.0)
(-0.0149323 0.000240469 0.0)
(-0.0157756 0.00025613 0.0)
(-0.016694 0.000271869 0.0)
(-0.0176955 0.000286981 0.0)
(-0.0187868 0.000300528 0.0)
(-0.0199699 0.000311236 0.0)
(-0.0212378 0.000318264 0.0)
(-0.0225676 0.000319982 0.0)
(-0.0239159 0.000314566 0.0)
(-0.025216 0.000297931 0.0)
(-0.026383 0.00026619 0.0)
(-0.0273266 0.000215613 0.0)
(-0.0279677 0.000146367 0.0)
(-0.0282457 6.52798e-05 0.0)
(-0.0281385 -1.01043e-06 0.0)
(-0.0276635 -6.75028e-05 0.0)
(-0.0267951 -0.000153105 0.0)
(-0.0255661 -0.00025396 0.0)
(-0.0240299 -0.000357441 0.0)
(-0.0222599 -0.000449797 0.0)
(-0.0203415 -0.000519973 0.0)
(-0.0183643 -0.000559887 0.0)
(-0.0164164 -0.000565278 0.0)
(-0.0145808 -0.00053461 0.0)
(-0.0129332 -0.000468853 0.0)
(-0.0115392 -0.000370767 0.0)
(-0.0104508 -0.00024546 0.0)
(-0.00970242 -0.000101052 0.0)
(-0.00930375 5.33568e-05 0.0)
(-0.00924738 0.000201201 0.0)
(-0.00957831 0.000317032 0.0)
(-0.0102594 0.000383869 0.0)
(-0.0112119 0.000393697 0.0)
(-0.01233 0.000344571 0.0)
(-0.0135139 0.000240708 0.0)
(-0.0146945 9.87027e-05 0.0)
(-0.0158445 -5.05258e-05 0.0)
(-0.0169797 -0.00016925 0.0)
(-0.0181478 -0.000224916 0.0)
(-0.0194048 -0.000202203 0.0)
(-0.0207906 -0.000108611 0.0)
(-0.0223112 2.95382e-05 0.0)
(-0.0239344 0.000178656 0.0)
(-0.0256 0.000309306 0.0)
(-0.0272361 0.000403179 0.0)
(-0.0287751 0.000454894 0.0)
(-0.0301656 0.000468042 0.0)
(-0.0313753 0.00045169 0.0)
(-0.0323908 0.000415055 0.0)
(-0.0332137 0.000366701 0.0)
(-0.0338577 0.000313355 0.0)
(-0.0343455 0.00025988 0.0)
(-0.0347049 0.000210087 0.0)
(-0.0349677 0.000167791 0.0)
(-0.0351675 0.000136407 0.0)
(-0.0353386 0.000118475 0.0)
(-0.0355152 0.000114647 0.0)
(-0.0357319 0.000123817 0.0)
(-0.0360239 0.00014555 0.0)
(-0.0364259 0.000179755 0.0)
(-0.0369707 0.000227773 0.0)
(-0.0376888 0.000290661 0.0)
(-0.0386072 0.00036919 0.0)
(-0.0397495 0.000463945 0.0)
(-0.0411364 0.000574907 0.0)
(-0.0427845 0.000701569 0.0)
(-0.0447062 0.00084266 0.0)
(-0.0469089 0.000996043 0.0)
(-0.0493951 0.00115972 0.0)
(-0.0521629 0.00133072 0.0)
(-0.0552054 0.00150589 0.0)
(-0.0585118 0.00168203 0.0)
(-0.0620675 0.00185622 0.0)
(-0.0658544 0.00202562 0.0)
(-0.0698517 0.00218792 0.0)
(-0.0740366 0.00234121 0.0)
(-0.0783853 0.00248432 0.0)
(-0.082873 0.00261644 0.0)
(-0.0874742 0.00273698 0.0)
(-0.092164 0.00284588 0.0)
(-0.0969172 0.00294337 0.0)
(-0.101709 0.00302941 0.0)
(-0.106513 0.00310389 0.0)
(-0.111305 0.00316603 0.0)
(-0.116054 0.00321432 0.0)
(-0.120728 0.00324607 0.0)
(-0.125286 0.00325664 0.0)
(-0.129677 0.00323981 0.0)
(-0.133837 0.00318694 0.0)
(-0.137686 0.00308485 0.0)
(-0.141117 0.00291497 0.0)
(-0.143978 0.00265687 0.0)
(-0.146074 0.00228492 0.0)
(-0.14722 0.00174932 0.0)
(-0.147156 0.00100759 0.0)
(-0.144988 0.000135073 0.0)
(-0.140421 -0.00107615 0.0)
(-0.135626 -0.00246429 0.0)
(-0.123361 -0.00180204 0.0)
(-0.107687 -0.00539558 0.0)
(-0.0890092 -0.00997112 0.0)
(-0.0640592 -0.0146421 0.0)
(-0.0371995 -0.0175603 0.0)
(-0.0106564 -0.0162663 0.0)
(0.0137187 -0.00224945 0.0)
(0.0108682 0.0065218 0.0)
(-0.0100025 0.0213752 0.0)
(-0.40786972641944885 0.08588572591543198 0.0)
(-0.4385366141796112 -0.10531769692897797 0.0)
(-0.40931081771850586 -0.1189359799027443 0.0)
(-0.3657379448413849 -0.09360597282648087 0.0)
(-0.3246361315250397 -0.06661313772201538 0.0)
(-0.2902717590332031 -0.045717716217041016 0.0)
(-0.26247724890708923 -0.030817093327641487 0.0)
(-0.24013641476631165 -0.02041049115359783 0.0)
(-0.2221209555864334 -0.013072498142719269 0.0)
(-0.20750992000102997 -0.007824050262570381 0.0)
(-0.1955815851688385 -0.003995155915617943 0.0)
(-0.18578295409679413 -0.001141759566962719 0.0)
(-0.1776917725801468 0.0010283077135682106 0.0)
(-0.17098359763622284 0.002710864879190922 0.0)
(-0.16540883481502533 0.004041057080030441 0.0)
(-0.16077233850955963 0.005109374411404133 0.0)
(-0.1569204181432724 0.005981255788356066 0.0)
(-0.15373317897319794 0.006703098304569721 0.0)
(-0.15111318230628967 0.007309931330382824 0.0)
(-0.14898137748241425 0.007825103588402271 0.0)
(-0.14727574586868286 0.00826721079647541 0.0)
(-0.14594504237174988 0.008648695424199104 0.0)
(-0.144947350025177 0.008981270715594292 0.0)
(-0.1442386507987976 0.009273108094930649 0.0)
(-0.14378279447555542 0.009547047317028046 0.0)
(-0.14354823529720306 0.009805548004806042 0.0)
(-0.1435328722000122 0.010042369365692139 0.0)
(-0.14374728500843048 0.01027548685669899 0.0)
(-0.14415861666202545 0.010479703545570374 0.0)
(-0.14474081993103027 0.010662736371159554 0.0)
(-0.1454811990261078 0.01083175465464592 0.0)
(-0.1463688313961029 0.01099140103906393 0.0)
(-0.1473960429430008 0.011144479736685753 0.0)
(-0.14855588972568512 0.011291999369859695 0.0)
(-0.14984388649463654 0.011436490342020988 0.0)
(-0.15125605463981628 0.01157769002020359 0.0)
(-0.1527889370918274 0.011718341149389744 0.0)
(-0.15443988144397736 0.011858057230710983 0.0)
(-0.15620781481266022 0.011998293921351433 0.0)
(-0.15809273719787598 0.01213882863521576 0.0)
(-0.16009359061717987 0.01228029653429985 0.0)
(-0.1622106432914734 0.012424147687852383 0.0)
(-0.16444550454616547 0.012570139020681381 0.0)
(-0.16679972410202026 0.01271888893097639 0.0)
(-0.1692749261856079 0.012870900332927704 0.0)
(-0.17187324166297913 0.013027557171881199 0.0)
(-0.17459838092327118 0.013187948614358902 0.0)
(-0.17745348811149597 0.013353455811738968 0.0)
(-0.18044227361679077 0.013524002395570278 0.0)
(-0.18356984853744507 0.013701355084776878 0.0)
(-0.18684041500091553 0.01388508826494217 0.0)
(-0.19025978446006775 0.014076050370931625 0.0)
(-0.1938346028327942 0.014275269582867622 0.0)
(-0.19757060706615448 0.014483314007520676 0.0)
(-0.20147524774074554 0.014700202271342278 0.0)
(-0.20555680990219116 0.01492764987051487 0.0)
(-0.20982369780540466 0.015165702439844608 0.0)
(-0.2142854779958725 0.01541584637016058 0.0)
(-0.2189517319202423 0.01567881368100643 0.0)
(-0.2238338142633438 0.015955638140439987 0.0)
(-0.22894395887851715 0.016247574239969254 0.0)
(-0.23429490625858307 0.016555802896618843 0.0)
(-0.23990105092525482 0.016882363706827164 0.0)
(-0.2457769364118576 0.017228396609425545 0.0)
(-0.25193822383880615 0.017595063894987106 0.0)
(-0.2584075927734375 0.017985213547945023 0.0)
(-0.2651979327201843 0.018399950116872787 0.0)
(-0.2723330855369568 0.018841179087758064 0.0)
(-0.27983957529067993 0.019312018528580666 0.0)
(-0.2877386212348938 0.019814591854810715 0.0)
(-0.29605668783187866 0.02035052888095379 0.0)
(-0.30482563376426697 0.0209235530346632 0.0)
(-0.3140772581100464 0.021536869928240776 0.0)
(-0.32384610176086426 0.022193897515535355 0.0)
(-0.33417195081710815 0.02289845608174801 0.0)
(-0.3450970947742462 0.02365533635020256 0.0)
(-0.3566693663597107 0.024469051510095596 0.0)
(-0.3689364790916443 0.02534475177526474 0.0)
(-0.38195672631263733 0.02628798596560955 0.0)
(-0.3957938253879547 0.027305366471409798 0.0)
(-0.41051414608955383 0.02840328961610794 0.0)
(-0.4261971414089203 0.029590409249067307 0.0)
(-0.44292253255844116 0.03087429888546467 0.0)
(-0.4607909619808197 0.03226696327328682 0.0)
(-0.47990843653678894 0.03377803787589073 0.0)
(-0.5003944039344788 0.035423506051301956 0.0)
(-0.5223894119262695 0.0372183732688427 0.0)
(-0.5460500121116638 0.03918386995792389 0.0)
(-0.5715641975402832 0.04134243726730347 0.0)
(-0.5991524457931519 0.04372446611523628 0.0)
(-0.629080057144165 0.04636811837553978 0.0)
(-0.6616730093955994 0.04932132735848427 0.0)
(-0.697334349155426 0.052641384303569794 0.0)
(-0.7365760803222656 0.0563998818397522 0.0)
(-0.7800264954566956 0.06067834794521332 0.0)
(-0.8284340500831604 0.06553232669830322 0.0)
(-0.8825781345367432 0.07097596675157547 0.0)
(-0.9430955648422241 0.0768885388970375 0.0)
(-1.0101587772369385 0.08287440985441208 0.0)
(-1.0830029249191284 0.08817917853593826 0.0)
(-1.1595686674118042 0.09160754084587097 0.0)
(-1.2363630533218384 0.09170585125684738 0.0)
(-1.3087619543075562 0.08709641546010971 0.0)
(-1.3717505931854248 0.07701978832483292 0.0)
(-1.4207862615585327 0.06160919740796089 0.0)
(-1.452393889427185 0.04192868620157242 0.0)
(-1.4640169143676758 0.019466932862997055 0.0)
(-1.455275535583496 -0.003806191263720393 0.0)
(-1.4271299839019775 -0.02733973041176796 0.0)
(-1.3821892738342285 -0.05036177486181259 0.0)
(-1.3244019746780396 -0.07021383196115494 0.0)
(-1.258080244064331 -0.08549939095973969 0.0)
(-1.187212586402893 -0.0958745926618576 0.0)
(-1.1152058839797974 -0.10127057880163193 0.0)
(-1.0448849201202393 -0.10187757015228271 0.0)
(-0.9786069989204407 -0.09802117198705673 0.0)
(-0.918387770652771 -0.09008011221885681 0.0)
(-0.8659801483154297 -0.07852014899253845 0.0)
(-0.8229144215583801 -0.06401419639587402 0.0)
(-0.7905007600784302 -0.047608427703380585 0.0)
(-0.769810676574707 -0.03033590503036976 0.0)
(-0.7621306777000427 -0.012183643877506256 0.0)
(-0.7712555527687073 0.007703588344156742 0.0)
(-0.8001289367675781 0.02875380404293537 0.0)
(-0.8469026684761047 0.04846248775720596 0.0)
(-0.9104894399642944 0.06488283723592758 0.0)
(-0.9890570044517517 0.07696998119354248 0.0)
(-1.080406904220581 0.08481309562921524 0.0)
(-1.182071328163147 0.08971157670021057 0.0)
(-1.2915668487548828 0.09360810369253159 0.0)
(-1.4062610864639282 0.09813046455383301 0.0)
(-1.5232722759246826 0.10384712368249893 0.0)
(-1.639623761177063 0.11012950539588928 0.0)
(-1.7526112794876099 0.11556871980428696 0.0)
(-1.8601093292236328 0.11871030926704407 0.0)
(-1.960635781288147 0.1186036467552185 0.0)
(-2.0532360076904297 0.11495587229728699 0.0)
(-2.1372947692871094 0.10807686299085617 0.0)
(-2.212432622909546 0.0986652821302414 0.0)
(-2.278470277786255 0.08759678900241852 0.0)
(-2.335486650466919 0.07576370239257812 0.0)
(-2.3838231563568115 0.06393119692802429 0.0)
(-2.4240901470184326 0.05274885147809982 0.0)
(-2.457144260406494 0.042722996324300766 0.0)
(-2.4840359687805176 0.03421337157487869 0.0)
(-2.5059447288513184 0.027471181005239487 0.0)
(-2.5241308212280273 0.022664178162813187 0.0)
(-2.5398902893066406 0.019886214286088943 0.0)
(-2.5545201301574707 0.019163649529218674 0.0)
(-2.5692691802978516 0.020464254543185234 0.0)
(-2.5852913856506348 0.02368437685072422 0.0)
(-2.603630781173706 0.02868444100022316 0.0)
(-2.625197410583496 0.0353042334318161 0.0)
(-2.650786876678467 0.04342689365148544 0.0)
(-2.681069850921631 0.052898235619068146 0.0)
(-2.71662974357605 0.06353873014450073 0.0)
(-2.757864236831665 0.0751451775431633 0.0)
(-2.8050384521484375 0.08748448640108109 0.0)
(-2.8582324981689453 0.10032309591770172 0.0)
(-2.9174461364746094 0.1134181097149849 0.0)
(-2.9825198650360107 0.12651872634887695 0.0)
(-3.053162097930908 0.13940930366516113 0.0)
(-3.1289749145507812 0.1518627107143402 0.0)
(-3.2094545364379883 0.1636660099029541 0.0)
(-3.2940175533294678 0.17463497817516327 0.0)
(-3.381974697113037 0.18461833894252777 0.0)
(-3.472663402557373 0.19350162148475647 0.0)
(-3.5652875900268555 0.20119604468345642 0.0)
(-3.6591315269470215 0.20763279497623444 0.0)
(-3.7533466815948486 0.21279239654541016 0.0)
(-3.847243309020996 0.21667273342609406 0.0)
(-3.9400525093078613 0.219288632273674 0.0)
(-4.031032085418701 0.22065769135951996 0.0)
(-4.119439125061035 0.22076602280139923 0.0)
(-4.204610824584961 0.21956460177898407 0.0)
(-4.285752296447754 0.2169697880744934 0.0)
(-4.362173557281494 0.21287645399570465 0.0)
(-4.432920455932617 0.20710371434688568 0.0)
(-4.497117519378662 0.19940967857837677 0.0)
(-4.553597927093506 0.1894313246011734 0.0)
(-4.601036548614502 0.17670094966888428 0.0)
(-4.63792085647583 0.1605347841978073 0.0)
(-4.662342071533203 0.13986867666244507 0.0)
(-4.671595573425293 0.11315357685089111 0.0)
(-4.661491870880127 0.07835470885038376 0.0)
(-4.62648868560791 0.03294321149587631 0.0)
(-4.562051773071289 -0.026207491755485535 0.0)
(-4.460146427154541 -0.0984344482421875 0.0)
(-4.3073554039001465 -0.18398840725421906 0.0)
(-4.092170238494873 -0.299403578042984 0.0)
(-3.832118034362793 -0.47298598289489746 0.0)
(-3.514392614364624 -0.5746738910675049 0.0)
(-3.096644639968872 -0.8617227673530579 0.0)
(-2.584725856781006 -1.0710856914520264 0.0)
(-1.990531086921692 -1.264628291130066 0.0)
(-1.340752124786377 -1.3513306379318237 0.0)
(-0.6994760632514954 -1.1948527097702026 0.0)
(-0.09967806190252304 -0.544292688369751 0.0)
(0.00959798 0.0137803 0.0)
(-0.00790106 0.0330938 0.0)
(-0.3374902904033661 0.2601292133331299 0.0)
(-0.40803807973861694 -0.07560925930738449 0.0)
(-0.4141888916492462 -0.1410249024629593 0.0)
(-0.3973475694656372 -0.12878850102424622 0.0)
(-0.37392112612724304 -0.10202818363904953 0.0)
(-0.350551038980484 -0.07757654786109924 0.0)
(-0.329326331615448 -0.05834057554602623 0.0)
(-0.31073620915412903 -0.043815210461616516 0.0)
(-0.29470929503440857 -0.03284400701522827 0.0)
(-0.2809905409812927 -0.024495407938957214 0.0)
(-0.2692854404449463 -0.01805613934993744 0.0)
(-0.2593075633049011 -0.013016869314014912 0.0)
(-0.25080737471580505 -0.009014522656798363 0.0)
(-0.24356220662593842 -0.005790702998638153 0.0)
(-0.23739458620548248 -0.003158293664455414 0.0)
(-0.23215095698833466 -0.000981498509645462 0.0)
(-0.22770528495311737 0.0008398890495300293 0.0)
(-0.22395290434360504 0.002381203230470419 0.0)
(-0.22080671787261963 0.0036993492394685745 0.0)
(-0.21819378435611725 0.004839440807700157 0.0)
(-0.2160528153181076 0.005835035815834999 0.0)
(-0.21433287858963013 0.006715197581797838 0.0)
(-0.2129896581172943 0.007503865286707878 0.0)
(-0.2119857519865036 0.008224571123719215 0.0)
(-0.2112906277179718 0.008885861374437809 0.0)
(-0.21087592840194702 0.009493065997958183 0.0)
(-0.2106928527355194 0.010008560493588448 0.0)
(-0.21074751019477844 0.010464346036314964 0.0)
(-0.21105417609214783 0.010878726840019226 0.0)
(-0.2115643173456192 0.011266867630183697 0.0)
(-0.21226362884044647 0.011633811518549919 0.0)
(-0.21314385533332825 0.011982923373579979 0.0)
(-0.2141973078250885 0.012316979467868805 0.0)
(-0.21541577577590942 0.012638336978852749 0.0)
(-0.2167947143316269 0.012949475087225437 0.0)
(-0.2183285802602768 0.013253181241452694 0.0)
(-0.22001314163208008 0.013551339507102966 0.0)
(-0.22184573113918304 0.01384563185274601 0.0)
(-0.2238236665725708 0.014137561433017254 0.0)
(-0.22594723105430603 0.014428948052227497 0.0)
(-0.22821404039859772 0.014721686020493507 0.0)
(-0.23062513768672943 0.015016525983810425 0.0)
(-0.23318186402320862 0.015314755961298943 0.0)
(-0.23588500916957855 0.01561838947236538 0.0)
(-0.23873616755008698 0.015927713364362717 0.0)
(-0.24173878133296967 0.016245150938630104 0.0)
(-0.24489545822143555 0.016570288687944412 0.0)
(-0.24821104109287262 0.01690526120364666 0.0)
(-0.25168970227241516 0.017251741141080856 0.0)
(-0.2553355395793915 0.017609896138310432 0.0)
(-0.2591550648212433 0.017982473596930504 0.0)
(-0.2631523013114929 0.018369683995842934 0.0)
(-0.267337828874588 0.018773436546325684 0.0)
(-0.27171701192855835 0.01919570192694664 0.0)
(-0.2763004004955292 0.019637417048215866 0.0)
(-0.2810933291912079 0.02010016329586506 0.0)
(-0.286109060049057 0.020586159080266953 0.0)
(-0.29135823249816895 0.021097194403409958 0.0)
(-0.29685401916503906 0.021636128425598145 0.0)
(-0.3026070296764374 0.022203631699085236 0.0)
(-0.3086306154727936 0.022803612053394318 0.0)
(-0.3149433135986328 0.023438196629285812 0.0)
(-0.32155841588974 0.024110600352287292 0.0)
(-0.3284970223903656 0.024824559688568115 0.0)
(-0.33578038215637207 0.025582054629921913 0.0)
(-0.34342440962791443 0.02638758346438408 0.0)
(-0.3514556586742401 0.02724607288837433 0.0)
(-0.3598979711532593 0.028160756453871727 0.0)
(-0.36878323554992676 0.02913656271994114 0.0)
(-0.37813788652420044 0.030180294066667557 0.0)
(-0.38799381256103516 0.031296901404857635 0.0)
(-0.398393452167511 0.032492637634277344 0.0)
(-0.4093712866306305 0.03377570956945419 0.0)
(-0.4209723174571991 0.03515379875898361 0.0)
(-0.43324434757232666 0.036634497344493866 0.0)
(-0.4462404251098633 0.03822961449623108 0.0)
(-0.4600214958190918 0.039949242025613785 0.0)
(-0.4746485948562622 0.0418068952858448 0.0)
(-0.49019598960876465 0.043813928961753845 0.0)
(-0.5067406296730042 0.04598705470561981 0.0)
(-0.5243753790855408 0.04834560304880142 0.0)
(-0.5431980490684509 0.05090705305337906 0.0)
(-0.5633201599121094 0.053696006536483765 0.0)
(-0.584877073764801 0.056739289313554764 0.0)
(-0.6080067753791809 0.0600680336356163 0.0)
(-0.6328815817832947 0.0637207180261612 0.0)
(-0.6597003936767578 0.0677465870976448 0.0)
(-0.6886885762214661 0.07220213115215302 0.0)
(-0.7201271653175354 0.07716292142868042 0.0)
(-0.7543531656265259 0.08272478729486465 0.0)
(-0.7917852997779846 0.0890156477689743 0.0)
(-0.8329543471336365 0.09620758146047592 0.0)
(-0.8785337209701538 0.10451872646808624 0.0)
(-0.9293799996376038 0.11421749740839005 0.0)
(-0.9864983558654785 0.1255689114332199 0.0)
(-1.0509737730026245 0.13872013986110687 0.0)
(-1.1236966848373413 0.15348269045352936 0.0)
(-1.2049407958984375 0.16902539134025574 0.0)
(-1.2937971353530884 0.18357957899570465 0.0)
(-1.3877041339874268 0.1944538950920105 0.0)
(-1.4823540449142456 0.19839294254779816 0.0)
(-1.572145700454712 0.19243068993091583 0.0)
(-1.6510733366012573 0.17476022243499756 0.0)
(-1.7137504816055298 0.14538688957691193 0.0)
(-1.7562963962554932 0.10612629354000092 0.0)
(-1.7767245769500732 0.06010071188211441 0.0)
(-1.7744964361190796 0.010333437472581863 0.0)
(-1.7516993284225464 -0.04058670252561569 0.0)
(-1.7118406295776367 -0.0867469534277916 0.0)
(-1.6607122421264648 -0.1245814710855484 0.0)
(-1.6034646034240723 -0.15292376279830933 0.0)
(-1.5442055463790894 -0.17164994776248932 0.0)
(-1.4860090017318726 -0.1813792735338211 0.0)
(-1.4311636686325073 -0.18305827677249908 0.0)
(-1.3814780712127686 -0.17761924862861633 0.0)
(-1.3385299444198608 -0.1658685952425003 0.0)
(-1.3038759231567383 -0.14854183793067932 0.0)
(-1.2792267799377441 -0.12635736167430878 0.0)
(-1.2665765285491943 -0.09984128177165985 0.0)
(-1.268168568611145 -0.06855413317680359 0.0)
(-1.2870131731033325 -0.03084488958120346 0.0)
(-1.3312749862670898 0.014035695232450962 0.0)
(-1.3985201120376587 0.06263815611600876 0.0)
(-1.4799845218658447 0.10960416495800018 0.0)
(-1.5743690729141235 0.1515541970729828 0.0)
(-1.6801384687423706 0.18683241307735443 0.0)
(-1.7960718870162964 0.21489830315113068 0.0)
(-1.9206018447875977 0.23603126406669617 0.0)
(-2.0515172481536865 0.25098803639411926 0.0)
(-2.186018228530884 0.26067012548446655 0.0)
(-2.320956230163574 0.26589012145996094 0.0)
(-2.4532103538513184 0.2672172486782074 0.0)
(-2.580002546310425 0.2649862766265869 0.0)
(-2.6990959644317627 0.2592874765396118 0.0)
(-2.808851957321167 0.25008803606033325 0.0)
(-2.908241033554077 0.23738142848014832 0.0)
(-2.9968101978302 0.2213391661643982 0.0)
(-3.074427604675293 0.20244504511356354 0.0)
(-3.1413581371307373 0.18144845962524414 0.0)
(-3.198131561279297 0.15930026769638062 0.0)
(-3.2454118728637695 0.13701270520687103 0.0)
(-3.284100294113159 0.11553850024938583 0.0)
(-3.3152315616607666 0.09573119133710861 0.0)
(-3.3398923873901367 0.07829427719116211 0.0)
(-3.3593294620513916 0.06374093145132065 0.0)
(-3.374788761138916 0.052393071353435516 0.0)
(-3.3874640464782715 0.044402092695236206 0.0)
(-3.398521661758423 0.03977202624082565 0.0)
(-3.4089958667755127 0.03842979297041893 0.0)
(-3.4198412895202637 0.040257371962070465 0.0)
(-3.4319067001342773 0.045107223093509674 0.0)
(-3.445960760116577 0.052796993404626846 0.0)
(-3.4625868797302246 0.06307758390903473 0.0)
(-3.482342004776001 0.0756622701883316 0.0)
(-3.505571126937866 0.09021465480327606 0.0)
(-3.5325653553009033 0.1063857153058052 0.0)
(-3.5634844303131104 0.12381843477487564 0.0)
(-3.598327875137329 0.14214493334293365 0.0)
(-3.637042760848999 0.16097988188266754 0.0)
(-3.6793904304504395 0.17991942167282104 0.0)
(-3.725052833557129 0.1985757052898407 0.0)
(-3.773632049560547 0.21658948063850403 0.0)
(-3.8246243000030518 0.23362970352172852 0.0)
(-3.8775522708892822 0.249381884932518 0.0)
(-3.931779384613037 0.2635977864265442 0.0)
(-3.9866960048675537 0.2760400176048279 0.0)
(-4.041665077209473 0.2865588366985321 0.0)
(-4.096104621887207 0.2950378656387329 0.0)
(-4.149350166320801 0.3014286160469055 0.0)
(-4.200845718383789 0.30570515990257263 0.0)
(-4.250034332275391 0.30786535143852234 0.0)
(-4.296412467956543 0.30793315172195435 0.0)
(-4.339502334594727 0.3059508800506592 0.0)
(-4.378932952880859 0.30192962288856506 0.0)
(-4.414279937744141 0.2958401143550873 0.0)
(-4.445145130157471 0.28760412335395813 0.0)
(-4.4712114334106445 0.27706965804100037 0.0)
(-4.4920268058776855 0.26397058367729187 0.0)
(-4.507194519042969 0.2479168325662613 0.0)
(-4.516130447387695 0.22838246822357178 0.0)
(-4.5182785987854 0.20463289320468903 0.0)
(-4.512948036193848 0.1755785495042801 0.0)
(-4.4993181228637695 0.13948595523834229 0.0)
(-4.475876808166504 0.09363865107297897 0.0)
(-4.440290927886963 0.034190498292446136 0.0)
(-4.389934539794922 -0.04270317777991295 0.0)
(-4.3253912925720215 -0.13993458449840546 0.0)
(-4.236611366271973 -0.2607346475124359 0.0)
(-4.115400791168213 -0.4111785888671875 0.0)
(-3.9588959217071533 -0.6017816662788391 0.0)
(-3.756118059158325 -0.8442436456680298 0.0)
(-3.4625461101531982 -1.1110568046569824 0.0)
(-3.089872360229492 -1.3997609615325928 0.0)
(-2.661036729812622 -1.701581597328186 0.0)
(-2.155773639678955 -1.9645390510559082 0.0)
(-1.5925681591033936 -2.0976600646972656 0.0)
(-1.0038883686065674 -1.924888014793396 0.0)
(-0.45295676589012146 -1.1676644086837769 0.0)
(0.00634912 0.0140102 0.0)
(-0.00641639 0.0425152 0.0)
(-0.2886233329772949 0.42224806547164917 0.0)
(-0.37075304985046387 -0.02314724214375019 0.0)
(-0.39464670419692993 -0.13799361884593964 0.0)
(-0.39400482177734375 -0.1438589096069336 0.0)
(-0.38367772102355957 -0.12259892374277115 0.0)
(-0.3702166974544525 -0.09875448793172836 0.0)
(-0.3562944531440735 -0.07824239134788513 0.0)
(-0.343011736869812 -0.061784401535987854 0.0)
(-0.33081716299057007 -0.048741415143013 0.0)
(-0.31986454129219055 -0.03840154409408569 0.0)
(-0.3101406395435333 -0.03014032170176506 0.0)
(-0.3015841543674469 -0.023473434150218964 0.0)
(-0.2940889894962311 -0.018035463988780975 0.0)
(-0.28755423426628113 -0.013551978394389153 0.0)
(-0.28187641501426697 -0.009816217236220837 0.0)
(-0.2769627571105957 -0.006670746952295303 0.0)
(-0.2727283239364624 -0.003997761756181717 0.0)
(-0.2691040337085724 -0.0017036860808730125 0.0)
(-0.2660236656665802 0.0002817763015627861 0.0)
(-0.2634314298629761 0.0020159506238996983 0.0)
(-0.26127955317497253 0.0035441461950540543 0.0)
(-0.2595230042934418 0.00490287272259593 0.0)
(-0.2581271827220917 0.006123084109276533 0.0)
(-0.25706034898757935 0.007231311872601509 0.0)
(-0.25629860162734985 0.008248848840594292 0.0)
(-0.2558445632457733 0.009196125902235508 0.0)
(-0.25566378235816956 0.01007070578634739 0.0)
(-0.25569790601730347 0.010781296528875828 0.0)
(-0.25593894720077515 0.011441734619438648 0.0)
(-0.256381630897522 0.012071512639522552 0.0)
(-0.25701797008514404 0.01267152652144432 0.0)
(-0.2578479051589966 0.013244598172605038 0.0)
(-0.25886088609695435 0.013792634010314941 0.0)
(-0.2600489854812622 0.01432117074728012 0.0)
(-0.2614068388938904 0.014831654727458954 0.0)
(-0.26293444633483887 0.015330487862229347 0.0)
(-0.26462388038635254 0.01581890881061554 0.0)
(-0.2664724588394165 0.016300693154335022 0.0)
(-0.26847755908966064 0.016777988523244858 0.0)
(-0.2706444561481476 0.017253773286938667 0.0)
(-0.2729652225971222 0.01773110404610634 0.0)
(-0.2754424810409546 0.018210651353001595 0.0)
(-0.2780788540840149 0.018695322796702385 0.0)
(-0.28087443113327026 0.019186964258551598 0.0)
(-0.28382909297943115 0.01968807727098465 0.0)
(-0.2869482636451721 0.02019982412457466 0.0)
(-0.2902371883392334 0.02072480320930481 0.0)
(-0.2936984896659851 0.0212637297809124 0.0)
(-0.29733482003211975 0.02182110585272312 0.0)
(-0.3011541962623596 0.022397201508283615 0.0)
(-0.30516189336776733 0.022994672879576683 0.0)
(-0.309365838766098 0.023615550249814987 0.0)
(-0.31376609206199646 0.024262096732854843 0.0)
(-0.3183811604976654 0.024936936795711517 0.0)
(-0.32321637868881226 0.025643084198236465 0.0)
(-0.32828229665756226 0.02638237550854683 0.0)
(-0.3335842490196228 0.02715875580906868 0.0)
(-0.3391381800174713 0.02797393500804901 0.0)
(-0.3449600040912628 0.028833525255322456 0.0)
(-0.35106027126312256 0.029739443212747574 0.0)
(-0.35745492577552795 0.030695881694555283 0.0)
(-0.36415988206863403 0.031708188354969025 0.0)
(-0.37119367718696594 0.032779838889837265 0.0)
(-0.3785749077796936 0.033916622400283813 0.0)
(-0.3863274157047272 0.03512462228536606 0.0)
(-0.39447513222694397 0.03640885651111603 0.0)
(-0.40304186940193176 0.037776410579681396 0.0)
(-0.4120542109012604 0.039235468953847885 0.0)
(-0.4215438961982727 0.04079349339008331 0.0)
(-0.4315454363822937 0.042460132390260696 0.0)
(-0.4420933425426483 0.044243428856134415 0.0)
(-0.4532274007797241 0.04615477845072746 0.0)
(-0.4649953246116638 0.04820786416530609 0.0)
(-0.4774448573589325 0.050414927303791046 0.0)
(-0.49062636494636536 0.05279099568724632 0.0)
(-0.5046008825302124 0.05535266175866127 0.0)
(-0.5194318890571594 0.05811883136630058 0.0)
(-0.5351992249488831 0.06111179292201996 0.0)
(-0.5519794821739197 0.06435519456863403 0.0)
(-0.5698630809783936 0.06787526607513428 0.0)
(-0.5889584422111511 0.07170487195253372 0.0)
(-0.6093772649765015 0.07587877660989761 0.0)
(-0.6312548518180847 0.08044126629829407 0.0)
(-0.6547448635101318 0.08544102311134338 0.0)
(-0.6800222992897034 0.09093966335058212 0.0)
(-0.7072862982749939 0.0970093309879303 0.0)
(-0.7367805242538452 0.10374318063259125 0.0)
(-0.768794059753418 0.11125712841749191 0.0)
(-0.8036772012710571 0.11970419436693192 0.0)
(-0.8418619632720947 0.12928761541843414 0.0)
(-0.8838974833488464 0.140277698636055 0.0)
(-0.9304705262184143 0.1530248075723648 0.0)
(-0.9824535846710205 0.16797596216201782 0.0)
(-1.040899634361267 0.18560299277305603 0.0)
(-1.1069464683532715 0.2062438726425171 0.0)
(-1.1816338300704956 0.22982461750507355 0.0)
(-1.265467643737793 0.25535908341407776 0.0)
(-1.357898235321045 0.28054624795913696 0.0)
(-1.4567617177963257 0.3015877604484558 0.0)
(-1.558100700378418 0.3136792480945587 0.0)
(-1.656449317932129 0.31199532747268677 0.0)
(-1.7456339597702026 0.2930658161640167 0.0)
(-1.819867730140686 0.2558090090751648 0.0)
(-1.874765157699585 0.20201024413108826 0.0)
(-1.908119559288025 0.135931596159935 0.0)
(-1.9201971292495728 0.06296120584011078 0.0)
(-1.9137903451919556 -0.011550139635801315 0.0)